MODEL 1
REMARK VINA RESULT:    -2.416      0.000      0.000
REMARK INTER + INTRA:          -4.039
REMARK INTER:                  -3.192
REMARK INTRA:                  -0.846
REMARK UNBOUND:                -0.846
REMARK SMILES CC[C@H](/C=C/[C@@H](C)[C@H]1CC[C@H]2[C@@H]3CC=C4C[C@@H](O)CC[C@]4(C)[C@H]3CC[C@]12C)C(C)C
REMARK SMILES IDX 5 1 4 2 6 3 7 4 8 5 17 6 16 7 19 8 15 9 20 10 21 11 14 12
REMARK SMILES IDX 23 13 13 14 12 15 24 16 11 17 25 18 26 19 10 20 9 21 22 22
REMARK SMILES IDX 27 23 18 24 3 26 28 27 29 28 30 29 2 30 1 31
REMARK H PARENT 18 25
REMARK INDEX MAP 23 1 24 2 15 3 22 4 6 5 21 6 19 7 20 8 14 9 16 10 8 11 17 12
REMARK INDEX MAP 5 13 12 14 4 15 10 16 3 17 7 18 2 19 9 20 11 21 18 22 13 23
REMARK INDEX MAP 1 24 31 25 25 26 26 27 28 28 29 29 27 30 30 31
ROOT
ATOM      1  C   UNL     1      19.352  66.466  17.022  1.00  0.00    -0.028 C 
ATOM      2  C   UNL     1      19.294  65.524  16.065  1.00  0.00    -0.027 C 
ENDROOT
BRANCH   1   3
ATOM      3  C   UNL     1      18.971  67.918  16.803  1.00  0.00    +0.012 C 
ATOM      4  C   UNL     1      17.979  67.970  15.639  1.00  0.00    +0.012 C 
BRANCH   3   5
ATOM      5  C   UNL     1      18.413  68.531  18.114  1.00  0.00    +0.002 C 
ATOM      6  C   UNL     1      17.870  75.834  22.893  1.00  0.00    +0.118 C 
ATOM      7  C   UNL     1      18.714  74.683  23.443  1.00  0.00    +0.063 C 
ATOM      8  C   UNL     1      18.215  76.128  21.435  1.00  0.00    +0.033 C 
ATOM      9  C   UNL     1      18.646  73.452  22.564  1.00  0.00    -0.065 C 
ATOM     10  C   UNL     1      18.066  74.879  20.568  1.00  0.00    +0.014 C 
ATOM     11  C   UNL     1      18.891  73.651  21.061  1.00  0.00    -0.008 C 
ATOM     12  C   UNL     1      18.373  72.251  23.106  1.00  0.00    -0.027 C 
ATOM     13  C   UNL     1      18.424  72.380  20.243  1.00  0.00    +0.003 C 
ATOM     14  C   UNL     1      18.304  70.966  22.342  1.00  0.00    +0.031 C 
ATOM     15  C   UNL     1      18.885  71.061  20.923  1.00  0.00    +0.000 C 
ATOM     16  C   UNL     1      18.788  72.427  18.737  1.00  0.00    +0.005 C 
ATOM     17  C   UNL     1      18.443  69.865  20.073  1.00  0.00    -0.001 C 
ATOM     18  C   UNL     1      18.413  71.151  17.964  1.00  0.00    +0.007 C 
ATOM     19  C   UNL     1      18.989  69.887  18.625  1.00  0.00    -0.026 C 
ATOM     20  C   UNL     1      18.782  68.469  20.573  1.00  0.00    +0.005 C 
ATOM     21  C   UNL     1      18.615  67.582  19.332  1.00  0.00    +0.005 C 
ATOM     22  C   UNL     1      20.398  73.931  20.855  1.00  0.00    +0.016 C 
ATOM     23  C   UNL     1      20.534  69.897  18.544  1.00  0.00    +0.012 C 
BRANCH   6  24
ATOM     24  O   UNL     1      18.082  77.010  23.673  1.00  0.00    -0.393 OA
ATOM     25  H   UNL     1      17.640  76.913  24.531  1.00  0.00    +0.210 HD
ENDBRANCH   6  24
ENDBRANCH   3   5
ENDBRANCH   1   3
BRANCH   2  26
ATOM     26  C   UNL     1      19.659  64.071  16.290  1.00  0.00    +0.014 C 
BRANCH  26  27
ATOM     27  C   UNL     1      18.606  63.085  15.701  1.00  0.00    -0.011 C 
ATOM     28  C   UNL     1      17.888  62.299  16.806  1.00  0.00    +0.008 C 
ATOM     29  C   UNL     1      19.165  62.111  14.658  1.00  0.00    +0.008 C 
ENDBRANCH  26  27
BRANCH  26  30
ATOM     30  C   UNL     1      19.907  63.801  17.790  1.00  0.00    +0.004 C 
ATOM     31  C   UNL     1      20.893  62.665  18.041  1.00  0.00    +0.004 C 
ENDBRANCH  26  30
ENDBRANCH   2  26
TORSDOF 6
ENDMDL
MODEL 2
REMARK VINA RESULT:    -2.359      1.205      2.860
REMARK INTER + INTRA:          -3.963
REMARK INTER:                  -4.271
REMARK INTRA:                   0.308
REMARK UNBOUND:                -0.846
REMARK SMILES CC[C@H](/C=C/[C@@H](C)[C@H]1CC[C@H]2[C@@H]3CC=C4C[C@@H](O)CC[C@]4(C)[C@H]3CC[C@]12C)C(C)C
REMARK SMILES IDX 5 1 4 2 6 3 7 4 8 5 17 6 16 7 19 8 15 9 20 10 21 11 14 12
REMARK SMILES IDX 23 13 13 14 12 15 24 16 11 17 25 18 26 19 10 20 9 21 22 22
REMARK SMILES IDX 27 23 18 24 3 26 28 27 29 28 30 29 2 30 1 31
REMARK H PARENT 18 25
REMARK INDEX MAP 23 1 24 2 15 3 22 4 6 5 21 6 19 7 20 8 14 9 16 10 8 11 17 12
REMARK INDEX MAP 5 13 12 14 4 15 10 16 3 17 7 18 2 19 9 20 11 21 18 22 13 23
REMARK INDEX MAP 1 24 31 25 25 26 26 27 28 28 29 29 27 30 30 31
ROOT
ATOM      1  C   UNL     1      18.987  66.388  16.659  1.00  0.00    -0.028 C 
ATOM      2  C   UNL     1      19.363  65.213  16.129  1.00  0.00    -0.027 C 
ENDROOT
BRANCH   1   3
ATOM      3  C   UNL     1      19.154  67.724  15.960  1.00  0.00    +0.012 C 
ATOM      4  C   UNL     1      17.770  68.191  15.507  1.00  0.00    +0.012 C 
BRANCH   3   5
ATOM      5  C   UNL     1      19.869  68.735  16.895  1.00  0.00    +0.002 C 
ATOM      6  C   UNL     1      18.968  73.693  24.042  1.00  0.00    +0.118 C 
ATOM      7  C   UNL     1      19.091  74.402  22.692  1.00  0.00    +0.063 C 
ATOM      8  C   UNL     1      17.934  72.572  23.988  1.00  0.00    +0.033 C 
ATOM      9  C   UNL     1      19.334  73.432  21.555  1.00  0.00    -0.065 C 
ATOM     10  C   UNL     1      18.253  71.576  22.874  1.00  0.00    +0.014 C 
ATOM     11  C   UNL     1      18.400  72.217  21.460  1.00  0.00    -0.008 C 
ATOM     12  C   UNL     1      20.338  73.651  20.685  1.00  0.00    -0.027 C 
ATOM     13  C   UNL     1      18.996  71.126  20.482  1.00  0.00    +0.003 C 
ATOM     14  C   UNL     1      20.657  72.777  19.514  1.00  0.00    +0.031 C 
ATOM     15  C   UNL     1      19.548  71.767  19.178  1.00  0.00    +0.000 C 
ATOM     16  C   UNL     1      18.040  69.940  20.198  1.00  0.00    +0.005 C 
ATOM     17  C   UNL     1      20.076  70.668  18.250  1.00  0.00    -0.001 C 
ATOM     18  C   UNL     1      18.586  68.928  19.176  1.00  0.00    +0.007 C 
ATOM     19  C   UNL     1      19.016  69.608  17.865  1.00  0.00    -0.026 C 
ATOM     20  C   UNL     1      20.680  71.086  16.918  1.00  0.00    +0.005 C 
ATOM     21  C   UNL     1      20.683  69.793  16.092  1.00  0.00    +0.005 C 
ATOM     22  C   UNL     1      17.017  72.714  20.976  1.00  0.00    +0.016 C 
ATOM     23  C   UNL     1      17.783  70.199  17.139  1.00  0.00    +0.012 C 
BRANCH   6  24
ATOM     24  O   UNL     1      18.598  74.629  25.053  1.00  0.00    -0.393 OA
ATOM     25  H   UNL     1      18.552  74.178  25.910  1.00  0.00    +0.210 HD
ENDBRANCH   6  24
ENDBRANCH   3   5
ENDBRANCH   1   3
BRANCH   2  26
ATOM     26  C   UNL     1      19.179  63.878  16.821  1.00  0.00    +0.014 C 
BRANCH  26  27
ATOM     27  C   UNL     1      20.349  63.532  17.789  1.00  0.00    -0.011 C 
ATOM     28  C   UNL     1      21.060  62.237  17.376  1.00  0.00    +0.008 C 
ATOM     29  C   UNL     1      19.946  63.447  19.265  1.00  0.00    +0.008 C 
ENDBRANCH  26  27
BRANCH  26  30
ATOM     30  C   UNL     1      18.955  62.756  15.783  1.00  0.00    +0.004 C 
ATOM     31  C   UNL     1      17.785  61.842  16.129  1.00  0.00    +0.004 C 
ENDBRANCH  26  30
ENDBRANCH   2  26
TORSDOF 6
ENDMDL
MODEL 3
REMARK VINA RESULT:    -2.282      3.763      9.575
REMARK INTER + INTRA:          -3.862
REMARK INTER:                  -4.129
REMARK INTRA:                   0.267
REMARK UNBOUND:                -0.846
REMARK SMILES CC[C@H](/C=C/[C@@H](C)[C@H]1CC[C@H]2[C@@H]3CC=C4C[C@@H](O)CC[C@]4(C)[C@H]3CC[C@]12C)C(C)C
REMARK SMILES IDX 5 1 4 2 6 3 7 4 8 5 17 6 16 7 19 8 15 9 20 10 21 11 14 12
REMARK SMILES IDX 23 13 13 14 12 15 24 16 11 17 25 18 26 19 10 20 9 21 22 22
REMARK SMILES IDX 27 23 18 24 3 26 28 27 29 28 30 29 2 30 1 31
REMARK H PARENT 18 25
REMARK INDEX MAP 23 1 24 2 15 3 22 4 6 5 21 6 19 7 20 8 14 9 16 10 8 11 17 12
REMARK INDEX MAP 5 13 12 14 4 15 10 16 3 17 7 18 2 19 9 20 11 21 18 22 13 23
REMARK INDEX MAP 1 24 31 25 25 26 26 27 28 28 29 29 27 30 30 31
ROOT
ATOM      1  C   UNL     1      19.406  75.662  22.202  1.00  0.00    -0.028 C 
ATOM      2  C   UNL     1      18.515  76.574  21.779  1.00  0.00    -0.027 C 
ENDROOT
BRANCH   1   3
ATOM      3  C   UNL     1      20.837  75.584  21.706  1.00  0.00    +0.012 C 
ATOM      4  C   UNL     1      21.678  74.936  22.808  1.00  0.00    +0.012 C 
BRANCH   3   5
ATOM      5  C   UNL     1      20.900  74.823  20.357  1.00  0.00    +0.002 C 
ATOM      6  C   UNL     1      17.143  68.580  15.521  1.00  0.00    +0.118 C 
ATOM      7  C   UNL     1      18.541  68.307  16.078  1.00  0.00    +0.063 C 
ATOM      8  C   UNL     1      16.206  69.107  16.605  1.00  0.00    +0.033 C 
ATOM      9  C   UNL     1      19.107  69.502  16.815  1.00  0.00    -0.065 C 
ATOM     10  C   UNL     1      16.780  70.353  17.276  1.00  0.00    +0.014 C 
ATOM     11  C   UNL     1      18.209  70.164  17.870  1.00  0.00    -0.008 C 
ATOM     12  C   UNL     1      20.346  69.944  16.530  1.00  0.00    -0.027 C 
ATOM     13  C   UNL     1      18.771  71.587  18.271  1.00  0.00    +0.003 C 
ATOM     14  C   UNL     1      21.017  71.096  17.207  1.00  0.00    +0.031 C 
ATOM     15  C   UNL     1      20.309  71.553  18.492  1.00  0.00    +0.000 C 
ATOM     16  C   UNL     1      18.020  72.254  19.451  1.00  0.00    +0.005 C 
ATOM     17  C   UNL     1      20.796  72.943  18.917  1.00  0.00    -0.001 C 
ATOM     18  C   UNL     1      18.625  73.596  19.899  1.00  0.00    +0.007 C 
ATOM     19  C   UNL     1      20.128  73.476  20.207  1.00  0.00    -0.026 C 
ATOM     20  C   UNL     1      22.285  73.132  19.168  1.00  0.00    +0.005 C 
ATOM     21  C   UNL     1      22.359  74.436  19.975  1.00  0.00    +0.005 C 
ATOM     22  C   UNL     1      18.135  69.221  19.094  1.00  0.00    +0.016 C 
ATOM     23  C   UNL     1      20.350  72.570  21.441  1.00  0.00    +0.012 C 
BRANCH   6  24
ATOM     24  O   UNL     1      16.596  67.386  14.965  1.00  0.00    -0.393 OA
ATOM     25  H   UNL     1      16.038  66.947  15.626  1.00  0.00    +0.210 HD
ENDBRANCH   6  24
ENDBRANCH   3   5
ENDBRANCH   1   3
BRANCH   2  26
ATOM     26  C   UNL     1      17.090  76.661  22.288  1.00  0.00    +0.014 C 
BRANCH  26  27
ATOM     27  C   UNL     1      17.011  76.922  23.822  1.00  0.00    -0.011 C 
ATOM     28  C   UNL     1      17.461  75.697  24.627  1.00  0.00    +0.008 C 
ATOM     29  C   UNL     1      15.635  77.384  24.315  1.00  0.00    +0.008 C 
ENDBRANCH  26  27
BRANCH  26  30
ATOM     30  C   UNL     1      16.296  75.398  21.889  1.00  0.00    +0.004 C 
ATOM     31  C   UNL     1      16.111  75.256  20.382  1.00  0.00    +0.004 C 
ENDBRANCH  26  30
ENDBRANCH   2  26
TORSDOF 6
ENDMDL
MODEL 4
REMARK VINA RESULT:    -1.994      1.162      2.409
REMARK INTER + INTRA:          -3.481
REMARK INTER:                  -3.737
REMARK INTRA:                   0.256
REMARK UNBOUND:                -0.846
REMARK SMILES CC[C@H](/C=C/[C@@H](C)[C@H]1CC[C@H]2[C@@H]3CC=C4C[C@@H](O)CC[C@]4(C)[C@H]3CC[C@]12C)C(C)C
REMARK SMILES IDX 5 1 4 2 6 3 7 4 8 5 17 6 16 7 19 8 15 9 20 10 21 11 14 12
REMARK SMILES IDX 23 13 13 14 12 15 24 16 11 17 25 18 26 19 10 20 9 21 22 22
REMARK SMILES IDX 27 23 18 24 3 26 28 27 29 28 30 29 2 30 1 31
REMARK H PARENT 18 25
REMARK INDEX MAP 23 1 24 2 15 3 22 4 6 5 21 6 19 7 20 8 14 9 16 10 8 11 17 12
REMARK INDEX MAP 5 13 12 14 4 15 10 16 3 17 7 18 2 19 9 20 11 21 18 22 13 23
REMARK INDEX MAP 1 24 31 25 25 26 26 27 28 28 29 29 27 30 30 31
ROOT
ATOM      1  C   UNL     1      19.397  66.390  16.861  1.00  0.00    -0.028 C 
ATOM      2  C   UNL     1      19.410  65.265  16.126  1.00  0.00    -0.027 C 
ENDROOT
BRANCH   1   3
ATOM      3  C   UNL     1      19.010  67.751  16.316  1.00  0.00    +0.012 C 
ATOM      4  C   UNL     1      17.489  67.879  16.417  1.00  0.00    +0.012 C 
BRANCH   3   5
ATOM      5  C   UNL     1      19.773  68.870  17.071  1.00  0.00    +0.002 C 
ATOM      6  C   UNL     1      19.275  74.681  23.587  1.00  0.00    +0.118 C 
ATOM      7  C   UNL     1      19.310  75.217  22.154  1.00  0.00    +0.063 C 
ATOM      8  C   UNL     1      18.247  73.563  23.737  1.00  0.00    +0.033 C 
ATOM      9  C   UNL     1      19.490  74.112  21.134  1.00  0.00    -0.065 C 
ATOM     10  C   UNL     1      18.505  72.436  22.738  1.00  0.00    +0.014 C 
ATOM     11  C   UNL     1      18.561  72.895  21.249  1.00  0.00    -0.008 C 
ATOM     12  C   UNL     1      20.437  74.220  20.184  1.00  0.00    -0.027 C 
ATOM     13  C   UNL     1      19.104  71.691  20.380  1.00  0.00    +0.003 C 
ATOM     14  C   UNL     1      20.690  73.207  19.113  1.00  0.00    +0.031 C 
ATOM     15  C   UNL     1      19.570  72.164  18.975  1.00  0.00    +0.000 C 
ATOM     16  C   UNL     1      18.140  70.479  20.305  1.00  0.00    +0.005 C 
ATOM     17  C   UNL     1      20.049  70.957  18.160  1.00  0.00    -0.001 C 
ATOM     18  C   UNL     1      18.630  69.347  19.385  1.00  0.00    +0.007 C 
ATOM     19  C   UNL     1      18.974  69.858  17.976  1.00  0.00    -0.026 C 
ATOM     20  C   UNL     1      20.566  71.206  16.752  1.00  0.00    +0.005 C 
ATOM     21  C   UNL     1      20.528  69.820  16.095  1.00  0.00    +0.005 C 
ATOM     22  C   UNL     1      17.147  73.328  20.793  1.00  0.00    +0.016 C 
ATOM     23  C   UNL     1      17.696  70.354  17.259  1.00  0.00    +0.012 C 
BRANCH   6  24
ATOM     24  O   UNL     1      18.960  75.736  24.495  1.00  0.00    -0.393 OA
ATOM     25  H   UNL     1      18.220  75.466  25.060  1.00  0.00    +0.210 HD
ENDBRANCH   6  24
ENDBRANCH   3   5
ENDBRANCH   1   3
BRANCH   2  26
ATOM     26  C   UNL     1      19.780  63.902  16.677  1.00  0.00    +0.014 C 
BRANCH  26  27
ATOM     27  C   UNL     1      19.155  62.731  15.863  1.00  0.00    -0.011 C 
ATOM     28  C   UNL     1      17.819  62.275  16.464  1.00  0.00    +0.008 C 
ATOM     29  C   UNL     1      20.077  61.520  15.685  1.00  0.00    +0.008 C 
ENDBRANCH  26  27
BRANCH  26  30
ATOM     30  C   UNL     1      19.415  63.807  18.175  1.00  0.00    +0.004 C 
ATOM     31  C   UNL     1      20.448  63.043  18.997  1.00  0.00    +0.004 C 
ENDBRANCH  26  30
ENDBRANCH   2  26
TORSDOF 6
ENDMDL
MODEL 5
REMARK VINA RESULT:    -1.357      3.714      9.232
REMARK INTER + INTRA:          -2.640
REMARK INTER:                  -3.116
REMARK INTRA:                   0.477
REMARK UNBOUND:                -0.846
REMARK SMILES CC[C@H](/C=C/[C@@H](C)[C@H]1CC[C@H]2[C@@H]3CC=C4C[C@@H](O)CC[C@]4(C)[C@H]3CC[C@]12C)C(C)C
REMARK SMILES IDX 5 1 4 2 6 3 7 4 8 5 17 6 16 7 19 8 15 9 20 10 21 11 14 12
REMARK SMILES IDX 23 13 13 14 12 15 24 16 11 17 25 18 26 19 10 20 9 21 22 22
REMARK SMILES IDX 27 23 18 24 3 26 28 27 29 28 30 29 2 30 1 31
REMARK H PARENT 18 25
REMARK INDEX MAP 23 1 24 2 15 3 22 4 6 5 21 6 19 7 20 8 14 9 16 10 8 11 17 12
REMARK INDEX MAP 5 13 12 14 4 15 10 16 3 17 7 18 2 19 9 20 11 21 18 22 13 23
REMARK INDEX MAP 1 24 31 25 25 26 26 27 28 28 29 29 27 30 30 31
ROOT
ATOM      1  C   UNL     1      19.494  75.771  22.149  1.00  0.00    -0.028 C 
ATOM      2  C   UNL     1      19.422  75.333  23.417  1.00  0.00    -0.027 C 
ENDROOT
BRANCH   1   3
ATOM      3  C   UNL     1      20.797  76.029  21.417  1.00  0.00    +0.012 C 
ATOM      4  C   UNL     1      21.944  75.730  22.385  1.00  0.00    +0.012 C 
BRANCH   3   5
ATOM      5  C   UNL     1      20.858  75.188  20.115  1.00  0.00    +0.002 C 
ATOM      6  C   UNL     1      17.144  68.619  15.696  1.00  0.00    +0.118 C 
ATOM      7  C   UNL     1      18.551  68.398  16.255  1.00  0.00    +0.063 C 
ATOM      8  C   UNL     1      16.210  69.197  16.756  1.00  0.00    +0.033 C 
ATOM      9  C   UNL     1      19.108  69.642  16.914  1.00  0.00    -0.065 C 
ATOM     10  C   UNL     1      16.773  70.489  17.346  1.00  0.00    +0.014 C 
ATOM     11  C   UNL     1      18.210  70.354  17.936  1.00  0.00    -0.008 C 
ATOM     12  C   UNL     1      20.338  70.083  16.591  1.00  0.00    -0.027 C 
ATOM     13  C   UNL     1      18.756  71.806  18.246  1.00  0.00    +0.003 C 
ATOM     14  C   UNL     1      20.999  71.282  17.192  1.00  0.00    +0.031 C 
ATOM     15  C   UNL     1      20.296  71.806  18.454  1.00  0.00    +0.000 C 
ATOM     16  C   UNL     1      18.006  72.533  19.392  1.00  0.00    +0.005 C 
ATOM     17  C   UNL     1      20.768  73.225  18.790  1.00  0.00    -0.001 C 
ATOM     18  C   UNL     1      18.597  73.907  19.752  1.00  0.00    +0.007 C 
ATOM     19  C   UNL     1      20.104  73.825  20.052  1.00  0.00    -0.026 C 
ATOM     20  C   UNL     1      22.256  73.448  19.015  1.00  0.00    +0.005 C 
ATOM     21  C   UNL     1      22.319  74.799  19.742  1.00  0.00    +0.005 C 
ATOM     22  C   UNL     1      18.160  69.485  19.215  1.00  0.00    +0.016 C 
ATOM     23  C   UNL     1      20.349  72.997  21.336  1.00  0.00    +0.012 C 
BRANCH   6  24
ATOM     24  O   UNL     1      16.610  67.386  15.218  1.00  0.00    -0.393 OA
ATOM     25  H   UNL     1      16.576  66.744  15.945  1.00  0.00    +0.210 HD
ENDBRANCH   6  24
ENDBRANCH   3   5
ENDBRANCH   1   3
BRANCH   2  26
ATOM     26  C   UNL     1      18.119  75.060  24.142  1.00  0.00    +0.014 C 
BRANCH  26  27
ATOM     27  C   UNL     1      17.842  73.540  24.335  1.00  0.00    -0.011 C 
ATOM     28  C   UNL     1      18.306  73.052  25.713  1.00  0.00    +0.008 C 
ATOM     29  C   UNL     1      18.439  72.644  23.245  1.00  0.00    +0.008 C 
ENDBRANCH  26  27
BRANCH  26  30
ATOM     30  C   UNL     1      16.944  75.763  23.426  1.00  0.00    +0.004 C 
ATOM     31  C   UNL     1      16.769  77.218  23.846  1.00  0.00    +0.004 C 
ENDBRANCH  26  30
ENDBRANCH   2  26
TORSDOF 6
ENDMDL
MODEL 6
REMARK VINA RESULT:    -0.835      3.040      4.290
REMARK INTER + INTRA:          -1.949
REMARK INTER:                  -2.144
REMARK INTRA:                   0.194
REMARK UNBOUND:                -0.846
REMARK SMILES CC[C@H](/C=C/[C@@H](C)[C@H]1CC[C@H]2[C@@H]3CC=C4C[C@@H](O)CC[C@]4(C)[C@H]3CC[C@]12C)C(C)C
REMARK SMILES IDX 5 1 4 2 6 3 7 4 8 5 17 6 16 7 19 8 15 9 20 10 21 11 14 12
REMARK SMILES IDX 23 13 13 14 12 15 24 16 11 17 25 18 26 19 10 20 9 21 22 22
REMARK SMILES IDX 27 23 18 24 3 26 28 27 29 28 30 29 2 30 1 31
REMARK H PARENT 18 25
REMARK INDEX MAP 23 1 24 2 15 3 22 4 6 5 21 6 19 7 20 8 14 9 16 10 8 11 17 12
REMARK INDEX MAP 5 13 12 14 4 15 10 16 3 17 7 18 2 19 9 20 11 21 18 22 13 23
REMARK INDEX MAP 1 24 31 25 25 26 26 27 28 28 29 29 27 30 30 31
ROOT
ATOM      1  C   UNL     1      20.022  69.447  17.058  1.00  0.00    -0.028 C 
ATOM      2  C   UNL     1      19.063  69.372  17.997  1.00  0.00    -0.027 C 
ENDROOT
BRANCH   1   3
ATOM      3  C   UNL     1      21.088  70.525  17.022  1.00  0.00    +0.012 C 
ATOM      4  C   UNL     1      20.787  71.439  15.833  1.00  0.00    +0.012 C 
BRANCH   3   5
ATOM      5  C   UNL     1      21.140  71.276  18.378  1.00  0.00    +0.002 C 
ATOM      6  C   UNL     1      16.786  76.675  23.704  1.00  0.00    +0.118 C 
ATOM      7  C   UNL     1      18.048  77.208  23.023  1.00  0.00    +0.063 C 
ATOM      8  C   UNL     1      15.861  75.990  22.701  1.00  0.00    +0.033 C 
ATOM      9  C   UNL     1      18.751  76.145  22.205  1.00  0.00    -0.065 C 
ATOM     10  C   UNL     1      16.588  74.877  21.948  1.00  0.00    +0.014 C 
ATOM     11  C   UNL     1      17.891  75.333  21.225  1.00  0.00    -0.008 C 
ATOM     12  C   UNL     1      20.072  75.940  22.360  1.00  0.00    -0.027 C 
ATOM     13  C   UNL     1      18.665  74.043  20.737  1.00  0.00    +0.003 C 
ATOM     14  C   UNL     1      20.875  74.938  21.594  1.00  0.00    +0.031 C 
ATOM     15  C   UNL     1      20.141  74.365  20.371  1.00  0.00    +0.000 C 
ATOM     16  C   UNL     1      17.938  73.255  19.618  1.00  0.00    +0.005 C 
ATOM     17  C   UNL     1      20.833  73.093  19.868  1.00  0.00    -0.001 C 
ATOM     18  C   UNL     1      18.734  72.053  19.082  1.00  0.00    +0.007 C 
ATOM     19  C   UNL     1      20.151  72.453  18.635  1.00  0.00    -0.026 C 
ATOM     20  C   UNL     1      22.298  73.187  19.471  1.00  0.00    +0.005 C 
ATOM     21  C   UNL     1      22.533  71.926  18.629  1.00  0.00    +0.005 C 
ATOM     22  C   UNL     1      17.524  76.254  20.037  1.00  0.00    +0.016 C 
ATOM     23  C   UNL     1      20.079  73.393  17.407  1.00  0.00    +0.012 C 
BRANCH   6  24
ATOM     24  O   UNL     1      16.085  77.743  24.338  1.00  0.00    -0.393 OA
ATOM     25  H   UNL     1      16.716  78.310  24.808  1.00  0.00    +0.210 HD
ENDBRANCH   6  24
ENDBRANCH   3   5
ENDBRANCH   1   3
BRANCH   2  26
ATOM     26  C   UNL     1      18.009  68.284  18.041  1.00  0.00    +0.014 C 
BRANCH  26  27
ATOM     27  C   UNL     1      16.663  68.720  17.390  1.00  0.00    -0.011 C 
ATOM     28  C   UNL     1      16.739  68.687  15.858  1.00  0.00    +0.008 C 
ATOM     29  C   UNL     1      16.151  70.090  17.849  1.00  0.00    +0.008 C 
ENDBRANCH  26  27
BRANCH  26  30
ATOM     30  C   UNL     1      17.802  67.790  19.490  1.00  0.00    +0.004 C 
ATOM     31  C   UNL     1      18.570  68.611  20.520  1.00  0.00    +0.004 C 
ENDBRANCH  26  30
ENDBRANCH   2  26
TORSDOF 6
ENDMDL
MODEL 7
REMARK VINA RESULT:    -0.759      3.386      9.478
REMARK INTER + INTRA:          -1.850
REMARK INTER:                  -3.222
REMARK INTRA:                   1.372
REMARK UNBOUND:                -0.846
REMARK SMILES CC[C@H](/C=C/[C@@H](C)[C@H]1CC[C@H]2[C@@H]3CC=C4C[C@@H](O)CC[C@]4(C)[C@H]3CC[C@]12C)C(C)C
REMARK SMILES IDX 5 1 4 2 6 3 7 4 8 5 17 6 16 7 19 8 15 9 20 10 21 11 14 12
REMARK SMILES IDX 23 13 13 14 12 15 24 16 11 17 25 18 26 19 10 20 9 21 22 22
REMARK SMILES IDX 27 23 18 24 3 26 28 27 29 28 30 29 2 30 1 31
REMARK H PARENT 18 25
REMARK INDEX MAP 23 1 24 2 15 3 22 4 6 5 21 6 19 7 20 8 14 9 16 10 8 11 17 12
REMARK INDEX MAP 5 13 12 14 4 15 10 16 3 17 7 18 2 19 9 20 11 21 18 22 13 23
REMARK INDEX MAP 1 24 31 25 25 26 26 27 28 28 29 29 27 30 30 31
ROOT
ATOM      1  C   UNL     1      19.803  76.404  21.839  1.00  0.00    -0.028 C 
ATOM      2  C   UNL     1      18.560  75.939  21.633  1.00  0.00    -0.027 C 
ENDROOT
BRANCH   1   3
ATOM      3  C   UNL     1      21.049  75.784  21.234  1.00  0.00    +0.012 C 
ATOM      4  C   UNL     1      22.257  76.314  22.010  1.00  0.00    +0.012 C 
BRANCH   3   5
ATOM      5  C   UNL     1      20.940  74.237  21.247  1.00  0.00    +0.002 C 
ATOM      6  C   UNL     1      19.309  67.171  16.360  1.00  0.00    +0.118 C 
ATOM      7  C   UNL     1      18.288  67.546  17.436  1.00  0.00    +0.063 C 
ATOM      8  C   UNL     1      19.689  68.380  15.510  1.00  0.00    +0.033 C 
ATOM      9  C   UNL     1      18.738  68.730  18.266  1.00  0.00    -0.065 C 
ATOM     10  C   UNL     1      20.205  69.527  16.378  1.00  0.00    +0.014 C 
ATOM     11  C   UNL     1      19.226  69.972  17.506  1.00  0.00    -0.008 C 
ATOM     12  C   UNL     1      18.707  68.662  19.609  1.00  0.00    -0.027 C 
ATOM     13  C   UNL     1      20.000  70.954  18.475  1.00  0.00    +0.003 C 
ATOM     14  C   UNL     1      19.104  69.773  20.529  1.00  0.00    +0.031 C 
ATOM     15  C   UNL     1      19.253  71.131  19.826  1.00  0.00    +0.000 C 
ATOM     16  C   UNL     1      20.381  72.310  17.829  1.00  0.00    +0.005 C 
ATOM     17  C   UNL     1      20.021  72.119  20.710  1.00  0.00    -0.001 C 
ATOM     18  C   UNL     1      21.053  73.297  18.799  1.00  0.00    +0.007 C 
ATOM     19  C   UNL     1      20.214  73.515  20.071  1.00  0.00    -0.026 C 
ATOM     20  C   UNL     1      19.465  72.422  22.093  1.00  0.00    +0.005 C 
ATOM     21  C   UNL     1      20.178  73.718  22.502  1.00  0.00    +0.005 C 
ATOM     22  C   UNL     1      17.993  70.660  16.873  1.00  0.00    +0.016 C 
ATOM     23  C   UNL     1      18.886  74.227  19.720  1.00  0.00    +0.012 C 
BRANCH   6  24
ATOM     24  O   UNL     1      18.777  66.150  15.517  1.00  0.00    -0.393 OA
ATOM     25  H   UNL     1      19.119  66.263  14.617  1.00  0.00    +0.210 HD
ENDBRANCH   6  24
ENDBRANCH   3   5
ENDBRANCH   1   3
BRANCH   2  26
ATOM     26  C   UNL     1      17.315  76.570  22.223  1.00  0.00    +0.014 C 
BRANCH  26  27
ATOM     27  C   UNL     1      17.400  76.744  23.769  1.00  0.00    -0.011 C 
ATOM     28  C   UNL     1      17.908  75.469  24.454  1.00  0.00    +0.008 C 
ATOM     29  C   UNL     1      16.092  77.194  24.428  1.00  0.00    +0.008 C 
ENDBRANCH  26  27
BRANCH  26  30
ATOM     30  C   UNL     1      16.057  75.772  21.813  1.00  0.00    +0.004 C 
ATOM     31  C   UNL     1      16.376  74.539  20.974  1.00  0.00    +0.004 C 
ENDBRANCH  26  30
ENDBRANCH   2  26
TORSDOF 6
ENDMDL
MODEL 8
REMARK VINA RESULT:    -0.416      2.546      4.255
REMARK INTER + INTRA:          -1.396
REMARK INTER:                  -2.270
REMARK INTRA:                   0.874
REMARK UNBOUND:                -0.846
REMARK SMILES CC[C@H](/C=C/[C@@H](C)[C@H]1CC[C@H]2[C@@H]3CC=C4C[C@@H](O)CC[C@]4(C)[C@H]3CC[C@]12C)C(C)C
REMARK SMILES IDX 5 1 4 2 6 3 7 4 8 5 17 6 16 7 19 8 15 9 20 10 21 11 14 12
REMARK SMILES IDX 23 13 13 14 12 15 24 16 11 17 25 18 26 19 10 20 9 21 22 22
REMARK SMILES IDX 27 23 18 24 3 26 28 27 29 28 30 29 2 30 1 31
REMARK H PARENT 18 25
REMARK INDEX MAP 23 1 24 2 15 3 22 4 6 5 21 6 19 7 20 8 14 9 16 10 8 11 17 12
REMARK INDEX MAP 5 13 12 14 4 15 10 16 3 17 7 18 2 19 9 20 11 21 18 22 13 23
REMARK INDEX MAP 1 24 31 25 25 26 26 27 28 28 29 29 27 30 30 31
ROOT
ATOM      1  C   UNL     1      19.741  69.467  17.309  1.00  0.00    -0.028 C 
ATOM      2  C   UNL     1      18.867  69.769  16.335  1.00  0.00    -0.027 C 
ENDROOT
BRANCH   1   3
ATOM      3  C   UNL     1      21.119  70.089  17.431  1.00  0.00    +0.012 C 
ATOM      4  C   UNL     1      21.408  70.843  16.131  1.00  0.00    +0.012 C 
BRANCH   3   5
ATOM      5  C   UNL     1      21.195  70.987  18.693  1.00  0.00    +0.002 C 
ATOM      6  C   UNL     1      16.824  76.746  23.612  1.00  0.00    +0.118 C 
ATOM      7  C   UNL     1      18.027  77.256  22.815  1.00  0.00    +0.063 C 
ATOM      8  C   UNL     1      15.890  75.915  22.736  1.00  0.00    +0.033 C 
ATOM      9  C   UNL     1      18.744  76.140  22.084  1.00  0.00    -0.065 C 
ATOM     10  C   UNL     1      16.636  74.758  22.073  1.00  0.00    +0.014 C 
ATOM     11  C   UNL     1      17.882  75.189  21.241  1.00  0.00    -0.008 C 
ATOM     12  C   UNL     1      20.079  76.012  22.194  1.00  0.00    -0.027 C 
ATOM     13  C   UNL     1      18.695  73.888  20.858  1.00  0.00    +0.003 C 
ATOM     14  C   UNL     1      20.895  74.967  21.502  1.00  0.00    +0.031 C 
ATOM     15  C   UNL     1      20.136  74.231  20.386  1.00  0.00    +0.000 C 
ATOM     16  C   UNL     1      17.959  72.949  19.868  1.00  0.00    +0.005 C 
ATOM     17  C   UNL     1      20.866  72.943  19.991  1.00  0.00    -0.001 C 
ATOM     18  C   UNL     1      18.788  71.731  19.427  1.00  0.00    +0.007 C 
ATOM     19  C   UNL     1      20.162  72.141  18.869  1.00  0.00    -0.026 C 
ATOM     20  C   UNL     1      22.306  73.056  19.514  1.00  0.00    +0.005 C 
ATOM     21  C   UNL     1      22.565  71.721  18.802  1.00  0.00    +0.005 C 
ATOM     22  C   UNL     1      17.418  75.955  19.980  1.00  0.00    +0.016 C 
ATOM     23  C   UNL     1      19.990  72.936  17.552  1.00  0.00    +0.012 C 
BRANCH   6  24
ATOM     24  O   UNL     1      16.101  77.847  24.161  1.00  0.00    -0.393 OA
ATOM     25  H   UNL     1      15.208  77.867  23.783  1.00  0.00    +0.210 HD
ENDBRANCH   6  24
ENDBRANCH   3   5
ENDBRANCH   1   3
BRANCH   2  26
ATOM     26  C   UNL     1      17.484  69.160  16.224  1.00  0.00    +0.014 C 
BRANCH  26  27
ATOM     27  C   UNL     1      16.786  68.989  17.606  1.00  0.00    -0.011 C 
ATOM     28  C   UNL     1      15.989  70.241  17.994  1.00  0.00    +0.008 C 
ATOM     29  C   UNL     1      17.731  68.607  18.750  1.00  0.00    +0.008 C 
ENDBRANCH  26  27
BRANCH  26  30
ATOM     30  C   UNL     1      17.542  67.823  15.452  1.00  0.00    +0.004 C 
ATOM     31  C   UNL     1      18.931  67.195  15.444  1.00  0.00    +0.004 C 
ENDBRANCH  26  30
ENDBRANCH   2  26
TORSDOF 6
ENDMDL
MODEL 9
REMARK VINA RESULT:    -0.343      1.244      2.160
REMARK INTER + INTRA:          -1.299
REMARK INTER:                  -0.732
REMARK INTRA:                  -0.567
REMARK UNBOUND:                -0.846
REMARK SMILES CC[C@H](/C=C/[C@@H](C)[C@H]1CC[C@H]2[C@@H]3CC=C4C[C@@H](O)CC[C@]4(C)[C@H]3CC[C@]12C)C(C)C
REMARK SMILES IDX 5 1 4 2 6 3 7 4 8 5 17 6 16 7 19 8 15 9 20 10 21 11 14 12
REMARK SMILES IDX 23 13 13 14 12 15 24 16 11 17 25 18 26 19 10 20 9 21 22 22
REMARK SMILES IDX 27 23 18 24 3 26 28 27 29 28 30 29 2 30 1 31
REMARK H PARENT 18 25
REMARK INDEX MAP 23 1 24 2 15 3 22 4 6 5 21 6 19 7 20 8 14 9 16 10 8 11 17 12
REMARK INDEX MAP 5 13 12 14 4 15 10 16 3 17 7 18 2 19 9 20 11 21 18 22 13 23
REMARK INDEX MAP 1 24 31 25 25 26 26 27 28 28 29 29 27 30 30 31
ROOT
ATOM      1  C   UNL     1      18.996  66.643  16.607  1.00  0.00    -0.028 C 
ATOM      2  C   UNL     1      19.374  65.447  16.126  1.00  0.00    -0.027 C 
ENDROOT
BRANCH   1   3
ATOM      3  C   UNL     1      19.309  67.964  15.930  1.00  0.00    +0.012 C 
ATOM      4  C   UNL     1      18.989  67.812  14.442  1.00  0.00    +0.012 C 
BRANCH   3   5
ATOM      5  C   UNL     1      18.528  69.117  16.613  1.00  0.00    +0.002 C 
ATOM      6  C   UNL     1      19.099  75.680  22.364  1.00  0.00    +0.118 C 
ATOM      7  C   UNL     1      18.233  74.475  22.739  1.00  0.00    +0.063 C 
ATOM      8  C   UNL     1      20.470  75.241  21.857  1.00  0.00    +0.033 C 
ATOM      9  C   UNL     1      18.149  73.460  21.619  1.00  0.00    -0.065 C 
ATOM     10  C   UNL     1      20.343  74.272  20.682  1.00  0.00    +0.014 C 
ATOM     11  C   UNL     1      19.471  73.014  20.977  1.00  0.00    -0.008 C 
ATOM     12  C   UNL     1      16.951  72.992  21.223  1.00  0.00    -0.027 C 
ATOM     13  C   UNL     1      19.205  72.265  19.610  1.00  0.00    +0.003 C 
ATOM     14  C   UNL     1      16.747  71.973  20.147  1.00  0.00    +0.031 C 
ATOM     15  C   UNL     1      18.037  71.248  19.733  1.00  0.00    +0.000 C 
ATOM     16  C   UNL     1      20.472  71.634  18.977  1.00  0.00    +0.005 C 
ATOM     17  C   UNL     1      17.847  70.522  18.396  1.00  0.00    -0.001 C 
ATOM     18  C   UNL     1      20.196  70.829  17.696  1.00  0.00    +0.007 C 
ATOM     19  C   UNL     1      19.105  69.765  17.908  1.00  0.00    -0.026 C 
ATOM     20  C   UNL     1      16.734  69.489  18.296  1.00  0.00    +0.005 C 
ATOM     21  C   UNL     1      17.100  68.674  17.048  1.00  0.00    +0.005 C 
ATOM     22  C   UNL     1      20.209  72.103  21.986  1.00  0.00    +0.016 C 
ATOM     23  C   UNL     1      19.600  68.681  18.896  1.00  0.00    +0.012 C 
BRANCH   6  24
ATOM     24  O   UNL     1      19.265  76.532  23.495  1.00  0.00    -0.393 OA
ATOM     25  H   UNL     1      18.468  77.072  23.614  1.00  0.00    +0.210 HD
ENDBRANCH   6  24
ENDBRANCH   3   5
ENDBRANCH   1   3
BRANCH   2  26
ATOM     26  C   UNL     1      19.046  64.127  16.795  1.00  0.00    +0.014 C 
BRANCH  26  27
ATOM     27  C   UNL     1      20.057  63.750  17.917  1.00  0.00    -0.011 C 
ATOM     28  C   UNL     1      20.870  62.502  17.550  1.00  0.00    +0.008 C 
ATOM     29  C   UNL     1      19.427  63.562  19.301  1.00  0.00    +0.008 C 
ENDBRANCH  26  27
BRANCH  26  30
ATOM     30  C   UNL     1      18.926  63.003  15.742  1.00  0.00    +0.004 C 
ATOM     31  C   UNL     1      17.810  62.009  16.050  1.00  0.00    +0.004 C 
ENDBRANCH  26  30
ENDBRANCH   2  26
TORSDOF 6
ENDMDL
MODEL 10
REMARK VINA RESULT:     0.007      1.420      2.430
REMARK INTER + INTRA:          -0.836
REMARK INTER:                  -1.048
REMARK INTRA:                   0.212
REMARK UNBOUND:                -0.846
REMARK SMILES CC[C@H](/C=C/[C@@H](C)[C@H]1CC[C@H]2[C@@H]3CC=C4C[C@@H](O)CC[C@]4(C)[C@H]3CC[C@]12C)C(C)C
REMARK SMILES IDX 5 1 4 2 6 3 7 4 8 5 17 6 16 7 19 8 15 9 20 10 21 11 14 12
REMARK SMILES IDX 23 13 13 14 12 15 24 16 11 17 25 18 26 19 10 20 9 21 22 22
REMARK SMILES IDX 27 23 18 24 3 26 28 27 29 28 30 29 2 30 1 31
REMARK H PARENT 18 25
REMARK INDEX MAP 23 1 24 2 15 3 22 4 6 5 21 6 19 7 20 8 14 9 16 10 8 11 17 12
REMARK INDEX MAP 5 13 12 14 4 15 10 16 3 17 7 18 2 19 9 20 11 21 18 22 13 23
REMARK INDEX MAP 1 24 31 25 25 26 26 27 28 28 29 29 27 30 30 31
ROOT
ATOM      1  C   UNL     1      19.018  66.729  17.043  1.00  0.00    -0.028 C 
ATOM      2  C   UNL     1      19.376  65.636  16.348  1.00  0.00    -0.027 C 
ENDROOT
BRANCH   1   3
ATOM      3  C   UNL     1      19.256  68.149  16.567  1.00  0.00    +0.012 C 
ATOM      4  C   UNL     1      17.955  68.655  15.939  1.00  0.00    +0.012 C 
BRANCH   3   5
ATOM      5  C   UNL     1      19.757  69.032  17.738  1.00  0.00    +0.002 C 
ATOM      6  C   UNL     1      17.894  75.957  22.744  1.00  0.00    +0.118 C 
ATOM      7  C   UNL     1      19.061  76.079  21.762  1.00  0.00    +0.063 C 
ATOM      8  C   UNL     1      16.651  75.392  22.061  1.00  0.00    +0.033 C 
ATOM      9  C   UNL     1      19.331  74.782  21.029  1.00  0.00    -0.065 C 
ATOM     10  C   UNL     1      16.947  74.050  21.393  1.00  0.00    +0.014 C 
ATOM     11  C   UNL     1      18.129  74.083  20.377  1.00  0.00    -0.008 C 
ATOM     12  C   UNL     1      20.581  74.287  20.974  1.00  0.00    -0.027 C 
ATOM     13  C   UNL     1      18.489  72.593  19.989  1.00  0.00    +0.003 C 
ATOM     14  C   UNL     1      20.970  73.031  20.260  1.00  0.00    +0.031 C 
ATOM     15  C   UNL     1      19.885  72.500  19.311  1.00  0.00    +0.000 C 
ATOM     16  C   UNL     1      17.388  71.866  19.175  1.00  0.00    +0.005 C 
ATOM     17  C   UNL     1      20.169  71.046  18.919  1.00  0.00    -0.001 C 
ATOM     18  C   UNL     1      17.779  70.449  18.721  1.00  0.00    +0.007 C 
ATOM     19  C   UNL     1      19.117  70.436  17.961  1.00  0.00    -0.026 C 
ATOM     20  C   UNL     1      21.500  70.733  18.253  1.00  0.00    +0.005 C 
ATOM     21  C   UNL     1      21.276  69.355  17.614  1.00  0.00    +0.005 C 
ATOM     22  C   UNL     1      17.713  74.905  19.134  1.00  0.00    +0.016 C 
ATOM     23  C   UNL     1      18.980  71.201  16.623  1.00  0.00    +0.012 C 
BRANCH   6  24
ATOM     24  O   UNL     1      17.587  77.234  23.299  1.00  0.00    -0.393 OA
ATOM     25  H   UNL     1      18.364  77.579  23.767  1.00  0.00    +0.210 HD
ENDBRANCH   6  24
ENDBRANCH   3   5
ENDBRANCH   1   3
BRANCH   2  26
ATOM     26  C   UNL     1      19.122  64.218  16.817  1.00  0.00    +0.014 C 
BRANCH  26  27
ATOM     27  C   UNL     1      20.179  63.723  17.847  1.00  0.00    -0.011 C 
ATOM     28  C   UNL     1      20.878  62.443  17.370  1.00  0.00    +0.008 C 
ATOM     29  C   UNL     1      19.633  63.510  19.263  1.00  0.00    +0.008 C 
ENDBRANCH  26  27
BRANCH  26  30
ATOM     30  C   UNL     1      19.018  63.259  15.610  1.00  0.00    +0.004 C 
ATOM     31  C   UNL     1      17.862  62.271  15.725  1.00  0.00    +0.004 C 
ENDBRANCH  26  30
ENDBRANCH   2  26
TORSDOF 6
ENDMDL
MODEL 11
REMARK VINA RESULT:     1.911      2.244      4.282
REMARK INTER + INTRA:           1.679
REMARK INTER:                   1.183
REMARK INTRA:                   0.496
REMARK UNBOUND:                -0.846
REMARK SMILES CC[C@H](/C=C/[C@@H](C)[C@H]1CC[C@H]2[C@@H]3CC=C4C[C@@H](O)CC[C@]4(C)[C@H]3CC[C@]12C)C(C)C
REMARK SMILES IDX 5 1 4 2 6 3 7 4 8 5 17 6 16 7 19 8 15 9 20 10 21 11 14 12
REMARK SMILES IDX 23 13 13 14 12 15 24 16 11 17 25 18 26 19 10 20 9 21 22 22
REMARK SMILES IDX 27 23 18 24 3 26 28 27 29 28 30 29 2 30 1 31
REMARK H PARENT 18 25
REMARK INDEX MAP 23 1 24 2 15 3 22 4 6 5 21 6 19 7 20 8 14 9 16 10 8 11 17 12
REMARK INDEX MAP 5 13 12 14 4 15 10 16 3 17 7 18 2 19 9 20 11 21 18 22 13 23
REMARK INDEX MAP 1 24 31 25 25 26 26 27 28 28 29 29 27 30 30 31
ROOT
ATOM      1  C   UNL     1      20.811  69.740  17.509  1.00  0.00    -0.028 C 
ATOM      2  C   UNL     1      19.498  69.570  17.736  1.00  0.00    -0.027 C 
ENDROOT
BRANCH   1   3
ATOM      3  C   UNL     1      21.606  70.936  17.998  1.00  0.00    +0.012 C 
ATOM      4  C   UNL     1      22.762  71.159  17.022  1.00  0.00    +0.012 C 
BRANCH   3   5
ATOM      5  C   UNL     1      20.681  72.172  18.148  1.00  0.00    +0.002 C 
ATOM      6  C   UNL     1      16.943  77.619  23.878  1.00  0.00    +0.118 C 
ATOM      7  C   UNL     1      16.034  76.663  23.104  1.00  0.00    +0.063 C 
ATOM      8  C   UNL     1      18.137  76.883  24.481  1.00  0.00    +0.033 C 
ATOM      9  C   UNL     1      16.797  75.845  22.084  1.00  0.00    -0.065 C 
ATOM     10  C   UNL     1      18.922  76.128  23.410  1.00  0.00    +0.014 C 
ATOM     11  C   UNL     1      18.068  75.132  22.568  1.00  0.00    -0.008 C 
ATOM     12  C   UNL     1      16.358  75.772  20.814  1.00  0.00    -0.027 C 
ATOM     13  C   UNL     1      18.940  74.647  21.341  1.00  0.00    +0.003 C 
ATOM     14  C   UNL     1      17.015  74.979  19.729  1.00  0.00    +0.031 C 
ATOM     15  C   UNL     1      18.064  73.981  20.244  1.00  0.00    +0.000 C 
ATOM     16  C   UNL     1      20.157  73.771  21.737  1.00  0.00    +0.005 C 
ATOM     17  C   UNL     1      18.959  73.494  19.099  1.00  0.00    -0.001 C 
ATOM     18  C   UNL     1      20.950  73.225  20.537  1.00  0.00    +0.007 C 
ATOM     19  C   UNL     1      20.046  72.483  19.537  1.00  0.00    -0.026 C 
ATOM     20  C   UNL     1      18.293  72.825  17.907  1.00  0.00    +0.005 C 
ATOM     21  C   UNL     1      19.443  72.090  17.206  1.00  0.00    +0.005 C 
ATOM     22  C   UNL     1      17.639  73.944  23.460  1.00  0.00    +0.016 C 
ATOM     23  C   UNL     1      19.474  71.199  20.185  1.00  0.00    +0.012 C 
BRANCH   6  24
ATOM     24  O   UNL     1      16.207  78.257  24.920  1.00  0.00    -0.393 OA
ATOM     25  H   UNL     1      15.315  77.881  24.963  1.00  0.00    +0.210 HD
ENDBRANCH   6  24
ENDBRANCH   3   5
ENDBRANCH   1   3
BRANCH   2  26
ATOM     26  C   UNL     1      18.709  68.366  17.261  1.00  0.00    +0.014 C 
BRANCH  26  27
ATOM     27  C   UNL     1      19.035  67.971  15.790  1.00  0.00    -0.011 C 
ATOM     28  C   UNL     1      17.911  68.386  14.833  1.00  0.00    +0.008 C 
ATOM     29  C   UNL     1      19.358  66.487  15.590  1.00  0.00    +0.008 C 
ENDBRANCH  26  27
BRANCH  26  30
ATOM     30  C   UNL     1      17.195  68.598  17.462  1.00  0.00    +0.004 C 
ATOM     31  C   UNL     1      16.885  69.723  18.443  1.00  0.00    +0.004 C 
ENDBRANCH  26  30
ENDBRANCH   2  26
TORSDOF 6
ENDMDL
MODEL 12
REMARK VINA RESULT:     1.987      4.133     11.869
REMARK INTER + INTRA:           1.780
REMARK INTER:                   1.826
REMARK INTRA:                  -0.045
REMARK UNBOUND:                -0.846
REMARK SMILES CC[C@H](/C=C/[C@@H](C)[C@H]1CC[C@H]2[C@@H]3CC=C4C[C@@H](O)CC[C@]4(C)[C@H]3CC[C@]12C)C(C)C
REMARK SMILES IDX 5 1 4 2 6 3 7 4 8 5 17 6 16 7 19 8 15 9 20 10 21 11 14 12
REMARK SMILES IDX 23 13 13 14 12 15 24 16 11 17 25 18 26 19 10 20 9 21 22 22
REMARK SMILES IDX 27 23 18 24 3 26 28 27 29 28 30 29 2 30 1 31
REMARK H PARENT 18 25
REMARK INDEX MAP 23 1 24 2 15 3 22 4 6 5 21 6 19 7 20 8 14 9 16 10 8 11 17 12
REMARK INDEX MAP 5 13 12 14 4 15 10 16 3 17 7 18 2 19 9 20 11 21 18 22 13 23
REMARK INDEX MAP 1 24 31 25 25 26 26 27 28 28 29 29 27 30 30 31
ROOT
ATOM      1  C   UNL     1      17.070  78.903  23.241  1.00  0.00    -0.028 C 
ATOM      2  C   UNL     1      16.579  79.787  24.125  1.00  0.00    -0.027 C 
ENDROOT
BRANCH   1   3
ATOM      3  C   UNL     1      17.324  77.441  23.559  1.00  0.00    +0.012 C 
ATOM      4  C   UNL     1      15.965  76.754  23.708  1.00  0.00    +0.012 C 
BRANCH   3   5
ATOM      5  C   UNL     1      18.220  76.801  22.467  1.00  0.00    +0.002 C 
ATOM      6  C   UNL     1      19.158  69.920  17.153  1.00  0.00    +0.118 C 
ATOM      7  C   UNL     1      20.158  70.077  18.300  1.00  0.00    +0.063 C 
ATOM      8  C   UNL     1      17.721  70.073  17.644  1.00  0.00    +0.033 C 
ATOM      9  C   UNL     1      19.937  71.355  19.082  1.00  0.00    -0.065 C 
ATOM     10  C   UNL     1      17.521  71.405  18.365  1.00  0.00    +0.014 C 
ATOM     11  C   UNL     1      18.504  71.650  19.550  1.00  0.00    -0.008 C 
ATOM     12  C   UNL     1      20.971  72.178  19.334  1.00  0.00    -0.027 C 
ATOM     13  C   UNL     1      18.363  73.158  20.006  1.00  0.00    +0.003 C 
ATOM     14  C   UNL     1      20.877  73.452  20.113  1.00  0.00    +0.031 C 
ATOM     15  C   UNL     1      19.561  73.602  20.892  1.00  0.00    +0.000 C 
ATOM     16  C   UNL     1      16.995  73.499  20.650  1.00  0.00    +0.005 C 
ATOM     17  C   UNL     1      19.357  75.054  21.339  1.00  0.00    -0.001 C 
ATOM     18  C   UNL     1      16.894  74.941  21.176  1.00  0.00    +0.007 C 
ATOM     19  C   UNL     1      18.048  75.288  22.132  1.00  0.00    -0.026 C 
ATOM     20  C   UNL     1      20.432  75.692  22.206  1.00  0.00    +0.005 C 
ATOM     21  C   UNL     1      19.734  76.913  22.819  1.00  0.00    +0.005 C 
ATOM     22  C   UNL     1      18.168  70.677  20.704  1.00  0.00    +0.016 C 
ATOM     23  C   UNL     1      17.945  74.443  23.424  1.00  0.00    +0.012 C 
BRANCH   6  24
ATOM     24  O   UNL     1      19.314  68.640  16.542  1.00  0.00    -0.393 OA
ATOM     25  H   UNL     1      19.796  68.737  15.706  1.00  0.00    +0.210 HD
ENDBRANCH   6  24
ENDBRANCH   3   5
ENDBRANCH   1   3
BRANCH   2  26
ATOM     26  C   UNL     1      16.309  81.242  23.801  1.00  0.00    +0.014 C 
BRANCH  26  27
ATOM     27  C   UNL     1      17.614  82.074  23.622  1.00  0.00    -0.011 C 
ATOM     28  C   UNL     1      18.001  82.802  24.915  1.00  0.00    +0.008 C 
ATOM     29  C   UNL     1      17.573  83.075  22.462  1.00  0.00    +0.008 C 
ENDBRANCH  26  27
BRANCH  26  30
ATOM     30  C   UNL     1      15.381  81.870  24.865  1.00  0.00    +0.004 C 
ATOM     31  C   UNL     1      14.518  83.001  24.316  1.00  0.00    +0.004 C 
ENDBRANCH  26  30
ENDBRANCH   2  26
TORSDOF 6
ENDMDL
MODEL 13
REMARK VINA RESULT:     2.827      2.413      3.800
REMARK INTER + INTRA:           2.890
REMARK INTER:                   2.321
REMARK INTRA:                   0.569
REMARK UNBOUND:                -0.846
REMARK SMILES CC[C@H](/C=C/[C@@H](C)[C@H]1CC[C@H]2[C@@H]3CC=C4C[C@@H](O)CC[C@]4(C)[C@H]3CC[C@]12C)C(C)C
REMARK SMILES IDX 5 1 4 2 6 3 7 4 8 5 17 6 16 7 19 8 15 9 20 10 21 11 14 12
REMARK SMILES IDX 23 13 13 14 12 15 24 16 11 17 25 18 26 19 10 20 9 21 22 22
REMARK SMILES IDX 27 23 18 24 3 26 28 27 29 28 30 29 2 30 1 31
REMARK H PARENT 18 25
REMARK INDEX MAP 23 1 24 2 15 3 22 4 6 5 21 6 19 7 20 8 14 9 16 10 8 11 17 12
REMARK INDEX MAP 5 13 12 14 4 15 10 16 3 17 7 18 2 19 9 20 11 21 18 22 13 23
REMARK INDEX MAP 1 24 31 25 25 26 26 27 28 28 29 29 27 30 30 31
ROOT
ATOM      1  C   UNL     1      19.988  69.624  16.939  1.00  0.00    -0.028 C 
ATOM      2  C   UNL     1      18.651  69.680  17.061  1.00  0.00    -0.027 C 
ENDROOT
BRANCH   1   3
ATOM      3  C   UNL     1      20.954  69.999  18.046  1.00  0.00    +0.012 C 
ATOM      4  C   UNL     1      21.807  71.166  17.545  1.00  0.00    +0.012 C 
BRANCH   3   5
ATOM      5  C   UNL     1      20.180  70.319  19.351  1.00  0.00    +0.002 C 
ATOM      6  C   UNL     1      16.372  76.674  23.998  1.00  0.00    +0.118 C 
ATOM      7  C   UNL     1      17.650  76.046  24.560  1.00  0.00    +0.063 C 
ATOM      8  C   UNL     1      16.542  77.060  22.531  1.00  0.00    +0.033 C 
ATOM      9  C   UNL     1      18.149  74.901  23.704  1.00  0.00    -0.065 C 
ATOM     10  C   UNL     1      16.978  75.861  21.690  1.00  0.00    +0.014 C 
ATOM     11  C   UNL     1      18.274  75.157  22.195  1.00  0.00    -0.008 C 
ATOM     12  C   UNL     1      18.457  73.720  24.272  1.00  0.00    -0.027 C 
ATOM     13  C   UNL     1      18.437  73.795  21.408  1.00  0.00    +0.003 C 
ATOM     14  C   UNL     1      18.979  72.529  23.534  1.00  0.00    +0.031 C 
ATOM     15  C   UNL     1      19.451  72.848  22.106  1.00  0.00    +0.000 C 
ATOM     16  C   UNL     1      18.736  73.970  19.897  1.00  0.00    +0.005 C 
ATOM     17  C   UNL     1      19.602  71.563  21.285  1.00  0.00    -0.001 C 
ATOM     18  C   UNL     1      18.984  72.647  19.152  1.00  0.00    +0.007 C 
ATOM     19  C   UNL     1      20.075  71.799  19.830  1.00  0.00    -0.026 C 
ATOM     20  C   UNL     1      20.542  70.487  21.807  1.00  0.00    +0.005 C 
ATOM     21  C   UNL     1      20.796  69.594  20.585  1.00  0.00    +0.005 C 
ATOM     22  C   UNL     1      19.487  76.089  21.967  1.00  0.00    +0.016 C 
ATOM     23  C   UNL     1      21.445  72.512  19.731  1.00  0.00    +0.012 C 
BRANCH   6  24
ATOM     24  O   UNL     1      16.025  77.833  24.754  1.00  0.00    -0.393 OA
ATOM     25  H   UNL     1      16.824  78.210  25.153  1.00  0.00    +0.210 HD
ENDBRANCH   6  24
ENDBRANCH   3   5
ENDBRANCH   1   3
BRANCH   2  26
ATOM     26  C   UNL     1      17.687  69.289  15.959  1.00  0.00    +0.014 C 
BRANCH  26  27
ATOM     27  C   UNL     1      16.261  68.959  16.493  1.00  0.00    -0.011 C 
ATOM     28  C   UNL     1      15.290  70.125  16.268  1.00  0.00    +0.008 C 
ATOM     29  C   UNL     1      16.218  68.532  17.964  1.00  0.00    +0.008 C 
ENDBRANCH  26  27
BRANCH  26  30
ATOM     30  C   UNL     1      18.262  68.122  15.126  1.00  0.00    +0.004 C 
ATOM     31  C   UNL     1      19.032  67.107  15.965  1.00  0.00    +0.004 C 
ENDBRANCH  26  30
ENDBRANCH   2  26
TORSDOF 6
ENDMDL
MODEL 14
REMARK VINA RESULT:     3.460      3.608      9.045
REMARK INTER + INTRA:           3.727
REMARK INTER:                   2.490
REMARK INTRA:                   1.237
REMARK UNBOUND:                -0.846
REMARK SMILES CC[C@H](/C=C/[C@@H](C)[C@H]1CC[C@H]2[C@@H]3CC=C4C[C@@H](O)CC[C@]4(C)[C@H]3CC[C@]12C)C(C)C
REMARK SMILES IDX 5 1 4 2 6 3 7 4 8 5 17 6 16 7 19 8 15 9 20 10 21 11 14 12
REMARK SMILES IDX 23 13 13 14 12 15 24 16 11 17 25 18 26 19 10 20 9 21 22 22
REMARK SMILES IDX 27 23 18 24 3 26 28 27 29 28 30 29 2 30 1 31
REMARK H PARENT 18 25
REMARK INDEX MAP 23 1 24 2 15 3 22 4 6 5 21 6 19 7 20 8 14 9 16 10 8 11 17 12
REMARK INDEX MAP 5 13 12 14 4 15 10 16 3 17 7 18 2 19 9 20 11 21 18 22 13 23
REMARK INDEX MAP 1 24 31 25 25 26 26 27 28 28 29 29 27 30 30 31
ROOT
ATOM      1  C   UNL     1      18.982  75.105  23.480  1.00  0.00    -0.028 C 
ATOM      2  C   UNL     1      20.042  75.515  22.765  1.00  0.00    -0.027 C 
ENDROOT
BRANCH   1   3
ATOM      3  C   UNL     1      19.038  74.003  24.520  1.00  0.00    +0.012 C 
ATOM      4  C   UNL     1      17.819  74.158  25.432  1.00  0.00    +0.012 C 
BRANCH   3   5
ATOM      5  C   UNL     1      19.119  72.616  23.831  1.00  0.00    +0.002 C 
ATOM      6  C   UNL     1      19.566  68.506  16.125  1.00  0.00    +0.118 C 
ATOM      7  C   UNL     1      18.280  68.356  16.940  1.00  0.00    +0.063 C 
ATOM      8  C   UNL     1      19.989  69.969  16.020  1.00  0.00    +0.033 C 
ATOM      9  C   UNL     1      18.373  69.040  18.288  1.00  0.00    -0.065 C 
ATOM     10  C   UNL     1      20.140  70.603  17.401  1.00  0.00    +0.014 C 
ATOM     11  C   UNL     1      18.874  70.491  18.304  1.00  0.00    -0.008 C 
ATOM     12  C   UNL     1      18.031  68.374  19.406  1.00  0.00    -0.027 C 
ATOM     13  C   UNL     1      19.270  70.932  19.770  1.00  0.00    +0.003 C 
ATOM     14  C   UNL     1      18.060  68.952  20.786  1.00  0.00    +0.031 C 
ATOM     15  C   UNL     1      18.207  70.481  20.810  1.00  0.00    +0.000 C 
ATOM     16  C   UNL     1      19.627  72.434  19.904  1.00  0.00    +0.005 C 
ATOM     17  C   UNL     1      18.617  70.966  22.205  1.00  0.00    -0.001 C 
ATOM     18  C   UNL     1      19.923  72.879  21.347  1.00  0.00    +0.007 C 
ATOM     19  C   UNL     1      18.787  72.501  22.312  1.00  0.00    -0.026 C 
ATOM     20  C   UNL     1      17.715  70.612  23.378  1.00  0.00    +0.005 C 
ATOM     21  C   UNL     1      18.148  71.586  24.482  1.00  0.00    +0.005 C 
ATOM     22  C   UNL     1      17.753  71.389  17.728  1.00  0.00    +0.016 C 
ATOM     23  C   UNL     1      17.503  73.292  21.964  1.00  0.00    +0.012 C 
BRANCH   6  24
ATOM     24  O   UNL     1      19.378  67.974  14.815  1.00  0.00    -0.393 OA
ATOM     25  H   UNL     1      20.226  67.962  14.345  1.00  0.00    +0.210 HD
ENDBRANCH   6  24
ENDBRANCH   3   5
ENDBRANCH   1   3
BRANCH   2  26
ATOM     26  C   UNL     1      19.987  76.629  21.738  1.00  0.00    +0.014 C 
BRANCH  26  27
ATOM     27  C   UNL     1      18.560  76.841  21.151  1.00  0.00    -0.011 C 
ATOM     28  C   UNL     1      17.518  77.042  22.258  1.00  0.00    +0.008 C 
ATOM     29  C   UNL     1      18.094  75.730  20.203  1.00  0.00    +0.008 C 
ENDBRANCH  26  27
BRANCH  26  30
ATOM     30  C   UNL     1      21.027  76.387  20.622  1.00  0.00    +0.004 C 
ATOM     31  C   UNL     1      22.097  75.371  21.007  1.00  0.00    +0.004 C 
ENDBRANCH  26  30
ENDBRANCH   2  26
TORSDOF 6
ENDMDL
MODEL 15
REMARK VINA RESULT:     3.850      3.510      9.420
REMARK INTER + INTRA:           4.241
REMARK INTER:                   3.907
REMARK INTRA:                   0.334
REMARK UNBOUND:                -0.846
REMARK SMILES CC[C@H](/C=C/[C@@H](C)[C@H]1CC[C@H]2[C@@H]3CC=C4C[C@@H](O)CC[C@]4(C)[C@H]3CC[C@]12C)C(C)C
REMARK SMILES IDX 5 1 4 2 6 3 7 4 8 5 17 6 16 7 19 8 15 9 20 10 21 11 14 12
REMARK SMILES IDX 23 13 13 14 12 15 24 16 11 17 25 18 26 19 10 20 9 21 22 22
REMARK SMILES IDX 27 23 18 24 3 26 28 27 29 28 30 29 2 30 1 31
REMARK H PARENT 18 25
REMARK INDEX MAP 23 1 24 2 15 3 22 4 6 5 21 6 19 7 20 8 14 9 16 10 8 11 17 12
REMARK INDEX MAP 5 13 12 14 4 15 10 16 3 17 7 18 2 19 9 20 11 21 18 22 13 23
REMARK INDEX MAP 1 24 31 25 25 26 26 27 28 28 29 29 27 30 30 31
ROOT
ATOM      1  C   UNL     1      19.419  73.542  23.639  1.00  0.00    -0.028 C 
ATOM      2  C   UNL     1      18.609  74.589  23.864  1.00  0.00    -0.027 C 
ENDROOT
BRANCH   1   3
ATOM      3  C   UNL     1      19.039  72.102  23.925  1.00  0.00    +0.012 C 
ATOM      4  C   UNL     1      18.377  72.059  25.304  1.00  0.00    +0.012 C 
BRANCH   3   5
ATOM      5  C   UNL     1      18.136  71.548  22.793  1.00  0.00    +0.002 C 
ATOM      6  C   UNL     1      18.106  67.521  15.030  1.00  0.00    +0.118 C 
ATOM      7  C   UNL     1      17.656  68.982  15.078  1.00  0.00    +0.063 C 
ATOM      8  C   UNL     1      19.424  67.322  15.774  1.00  0.00    +0.033 C 
ATOM      9  C   UNL     1      17.622  69.525  16.491  1.00  0.00    -0.065 C 
ATOM     10  C   UNL     1      19.327  67.817  17.216  1.00  0.00    +0.014 C 
ATOM     11  C   UNL     1      18.869  69.301  17.358  1.00  0.00    -0.008 C 
ATOM     12  C   UNL     1      16.527  70.167  16.939  1.00  0.00    -0.027 C 
ATOM     13  C   UNL     1      18.550  69.577  18.882  1.00  0.00    +0.003 C 
ATOM     14  C   UNL     1      16.388  70.764  18.304  1.00  0.00    +0.031 C 
ATOM     15  C   UNL     1      17.717  70.876  19.066  1.00  0.00    +0.000 C 
ATOM     16  C   UNL     1      19.793  69.536  19.807  1.00  0.00    +0.005 C 
ATOM     17  C   UNL     1      17.469  71.119  20.559  1.00  0.00    -0.001 C 
ATOM     18  C   UNL     1      19.493  69.894  21.272  1.00  0.00    +0.007 C 
ATOM     19  C   UNL     1      18.764  71.243  21.398  1.00  0.00    -0.026 C 
ATOM     20  C   UNL     1      16.653  72.339  20.958  1.00  0.00    +0.005 C 
ATOM     21  C   UNL     1      16.971  72.524  22.448  1.00  0.00    +0.005 C 
ATOM     22  C   UNL     1      19.987  70.235  16.838  1.00  0.00    +0.016 C 
ATOM     23  C   UNL     1      19.690  72.397  20.944  1.00  0.00    +0.012 C 
BRANCH   6  24
ATOM     24  O   UNL     1      18.262  67.102  13.675  1.00  0.00    -0.393 OA
ATOM     25  H   UNL     1      19.206  67.012  13.471  1.00  0.00    +0.210 HD
ENDBRANCH   6  24
ENDBRANCH   3   5
ENDBRANCH   1   3
BRANCH   2  26
ATOM     26  C   UNL     1      18.983  76.026  23.562  1.00  0.00    +0.014 C 
BRANCH  26  27
ATOM     27  C   UNL     1      17.903  76.769  22.721  1.00  0.00    -0.011 C 
ATOM     28  C   UNL     1      16.776  77.315  23.606  1.00  0.00    +0.008 C 
ATOM     29  C   UNL     1      17.304  75.937  21.582  1.00  0.00    +0.008 C 
ENDBRANCH  26  27
BRANCH  26  30
ATOM     30  C   UNL     1      20.370  76.092  22.885  1.00  0.00    +0.004 C 
ATOM     31  C   UNL     1      20.348  75.645  21.427  1.00  0.00    +0.004 C 
ENDBRANCH  26  30
ENDBRANCH   2  26
TORSDOF 6
ENDMDL
MODEL 16
REMARK VINA RESULT:     4.679      3.599      9.428
REMARK INTER + INTRA:           5.338
REMARK INTER:                   3.167
REMARK INTRA:                   2.171
REMARK UNBOUND:                -0.846
REMARK SMILES CC[C@H](/C=C/[C@@H](C)[C@H]1CC[C@H]2[C@@H]3CC=C4C[C@@H](O)CC[C@]4(C)[C@H]3CC[C@]12C)C(C)C
REMARK SMILES IDX 5 1 4 2 6 3 7 4 8 5 17 6 16 7 19 8 15 9 20 10 21 11 14 12
REMARK SMILES IDX 23 13 13 14 12 15 24 16 11 17 25 18 26 19 10 20 9 21 22 22
REMARK SMILES IDX 27 23 18 24 3 26 28 27 29 28 30 29 2 30 1 31
REMARK H PARENT 18 25
REMARK INDEX MAP 23 1 24 2 15 3 22 4 6 5 21 6 19 7 20 8 14 9 16 10 8 11 17 12
REMARK INDEX MAP 5 13 12 14 4 15 10 16 3 17 7 18 2 19 9 20 11 21 18 22 13 23
REMARK INDEX MAP 1 24 31 25 25 26 26 27 28 28 29 29 27 30 30 31
ROOT
ATOM      1  C   UNL     1      18.617  74.961  23.439  1.00  0.00    -0.028 C 
ATOM      2  C   UNL     1      17.444  75.595  23.598  1.00  0.00    -0.027 C 
ENDROOT
BRANCH   1   3
ATOM      3  C   UNL     1      19.152  73.918  24.402  1.00  0.00    +0.012 C 
ATOM      4  C   UNL     1      18.255  73.925  25.642  1.00  0.00    +0.012 C 
BRANCH   3   5
ATOM      5  C   UNL     1      19.231  72.534  23.708  1.00  0.00    +0.002 C 
ATOM      6  C   UNL     1      19.588  68.449  15.984  1.00  0.00    +0.118 C 
ATOM      7  C   UNL     1      18.316  68.288  16.818  1.00  0.00    +0.063 C 
ATOM      8  C   UNL     1      19.999  69.915  15.876  1.00  0.00    +0.033 C 
ATOM      9  C   UNL     1      18.425  68.969  18.166  1.00  0.00    -0.065 C 
ATOM     10  C   UNL     1      20.168  70.546  17.258  1.00  0.00    +0.014 C 
ATOM     11  C   UNL     1      18.916  70.423  18.179  1.00  0.00    -0.008 C 
ATOM     12  C   UNL     1      18.104  68.297  19.288  1.00  0.00    -0.027 C 
ATOM     13  C   UNL     1      19.332  70.863  19.640  1.00  0.00    +0.003 C 
ATOM     14  C   UNL     1      18.150  68.872  20.668  1.00  0.00    +0.031 C 
ATOM     15  C   UNL     1      18.287  70.402  20.695  1.00  0.00    +0.000 C 
ATOM     16  C   UNL     1      19.681  72.367  19.773  1.00  0.00    +0.005 C 
ATOM     17  C   UNL     1      18.715  70.885  22.085  1.00  0.00    -0.001 C 
ATOM     18  C   UNL     1      19.996  72.810  21.213  1.00  0.00    +0.007 C 
ATOM     19  C   UNL     1      18.876  72.421  22.194  1.00  0.00    -0.026 C 
ATOM     20  C   UNL     1      17.833  70.523  23.270  1.00  0.00    +0.005 C 
ATOM     21  C   UNL     1      18.277  71.496  24.371  1.00  0.00    +0.005 C 
ATOM     22  C   UNL     1      17.781  71.316  17.623  1.00  0.00    +0.016 C 
ATOM     23  C   UNL     1      17.583  73.205  21.868  1.00  0.00    +0.012 C 
BRANCH   6  24
ATOM     24  O   UNL     1      19.383  67.920  14.675  1.00  0.00    -0.393 OA
ATOM     25  H   UNL     1      20.085  68.235  14.085  1.00  0.00    +0.210 HD
ENDBRANCH   6  24
ENDBRANCH   3   5
ENDBRANCH   1   3
BRANCH   2  26
ATOM     26  C   UNL     1      16.903  76.625  22.626  1.00  0.00    +0.014 C 
BRANCH  26  27
ATOM     27  C   UNL     1      17.598  76.565  21.233  1.00  0.00    -0.011 C 
ATOM     28  C   UNL     1      16.966  75.496  20.332  1.00  0.00    +0.008 C 
ATOM     29  C   UNL     1      19.115  76.357  21.291  1.00  0.00    +0.008 C 
ENDBRANCH  26  27
BRANCH  26  30
ATOM     30  C   UNL     1      16.984  78.041  23.237  1.00  0.00    +0.004 C 
ATOM     31  C   UNL     1      15.984  78.266  24.367  1.00  0.00    +0.004 C 
ENDBRANCH  26  30
ENDBRANCH   2  26
TORSDOF 6
ENDMDL
