REMARK SMILES CC[C@H](/C=C/[C@@H](C)[C@H]1CC[C@H]2[C@@H]3CC=C4C[C@@H](O)CC[C@]4(C)[C@H]3CC[C@]12C)C(C)C
REMARK SMILES IDX 5 1 4 2 6 3 7 4 8 5 17 6 16 7 19 8 15 9 20 10 21 11 14 12
REMARK SMILES IDX 23 13 13 14 12 15 24 16 11 17 25 18 26 19 10 20 9 21 22 22
REMARK SMILES IDX 27 23 18 24 3 26 28 27 29 28 30 29 2 30 1 31
REMARK H PARENT 18 25
REMARK INDEX MAP 23 1 24 2 15 3 22 4 6 5 21 6 19 7 20 8 14 9 16 10 8 11 17 12
REMARK INDEX MAP 5 13 12 14 4 15 10 16 3 17 7 18 2 19 9 20 11 21 18 22 13 23
REMARK INDEX MAP 1 24 31 25 25 26 26 27 28 28 29 29 27 30 30 31
ROOT
ATOM      1  C   UNL     1      -4.145   0.771   0.471  1.00  0.00    -0.028 C 
ATOM      2  C   UNL     1      -5.230   0.336  -0.191  1.00  0.00    -0.027 C 
ENDROOT
BRANCH   1   3
ATOM      3  C   UNL     1      -2.860   1.208  -0.206  1.00  0.00    +0.012 C 
ATOM      4  C   UNL     1      -2.681   2.705   0.055  1.00  0.00    +0.012 C 
BRANCH   3   5
ATOM      5  C   UNL     1      -1.669   0.350   0.294  1.00  0.00    +0.002 C 
ATOM      6  C   UNL     1       7.050  -0.184   0.703  1.00  0.00    +0.118 C 
ATOM      7  C   UNL     1       6.314  -1.190  -0.184  1.00  0.00    +0.063 C 
ATOM      8  C   UNL     1       6.575   1.242   0.437  1.00  0.00    +0.033 C 
ATOM      9  C   UNL     1       4.810  -1.044  -0.090  1.00  0.00    -0.065 C 
ATOM     10  C   UNL     1       5.062   1.364   0.611  1.00  0.00    +0.014 C 
ATOM     11  C   UNL     1       4.232   0.369  -0.256  1.00  0.00    -0.008 C 
ATOM     12  C   UNL     1       4.041  -2.125   0.137  1.00  0.00    -0.027 C 
ATOM     13  C   UNL     1       2.729   0.421   0.233  1.00  0.00    +0.003 C 
ATOM     14  C   UNL     1       2.548  -2.106   0.226  1.00  0.00    +0.031 C 
ATOM     15  C   UNL     1       1.917  -0.800  -0.282  1.00  0.00    +0.000 C 
ATOM     16  C   UNL     1       2.016   1.767  -0.054  1.00  0.00    +0.005 C 
ATOM     17  C   UNL     1       0.462  -0.682   0.185  1.00  0.00    -0.001 C 
ATOM     18  C   UNL     1       0.529   1.783   0.340  1.00  0.00    +0.007 C 
ATOM     19  C   UNL     1      -0.246   0.611  -0.287  1.00  0.00    -0.026 C 
ATOM     20  C   UNL     1      -0.504  -1.792  -0.200  1.00  0.00    +0.005 C 
ATOM     21  C   UNL     1      -1.889  -1.167   0.017  1.00  0.00    +0.005 C 
ATOM     22  C   UNL     1       4.354   0.763  -1.747  1.00  0.00    +0.016 C 
ATOM     23  C   UNL     1      -0.296   0.765  -1.826  1.00  0.00    +0.012 C 
BRANCH   6  24
ATOM     24  O   UNL     1       8.455  -0.264   0.470  1.00  0.00    -0.393 OA
ATOM     25  H   UNL     1       8.760  -1.169   0.638  1.00  0.00    +0.210 HD
ENDBRANCH   6  24
ENDBRANCH   3   5
ENDBRANCH   1   3
BRANCH   2  26
ATOM     26  C   UNL     1      -6.519  -0.084   0.486  1.00  0.00    +0.014 C 
BRANCH  26  27
ATOM     27  C   UNL     1      -6.848  -1.592   0.278  1.00  0.00    -0.011 C 
ATOM     28  C   UNL     1      -5.774  -2.495   0.898  1.00  0.00    +0.008 C 
ATOM     29  C   UNL     1      -7.076  -1.995  -1.183  1.00  0.00    +0.008 C 
ENDBRANCH  26  27
BRANCH  26  30
ATOM     30  C   UNL     1      -7.688   0.817   0.030  1.00  0.00    +0.004 C 
ATOM     31  C   UNL     1      -7.541   2.266   0.482  1.00  0.00    +0.004 C 
ENDBRANCH  26  30
ENDBRANCH   2  26
TORSDOF 6
