MODEL 1
REMARK VINA RESULT:    -6.886      0.000      0.000
REMARK INTER + INTRA:         -11.634
REMARK INTER:                 -10.710
REMARK INTRA:                  -0.923
REMARK UNBOUND:                -0.923
REMARK SMILES CNC(=O)[C@@H](NC(=O)[C@H](CC(C)C)CN(O)C=O)C(C)(C)C
REMARK SMILES IDX 9 1 7 2 8 3 6 4 5 6 3 7 4 8 2 9 1 10 19 12 20 13 21 14 22 15
REMARK SMILES IDX 10 16 11 17 12 18 13 19 14 20 15 21 17 22 18 23 16 24
REMARK H PARENT 6 5 2 11 16 25
REMARK INDEX MAP 8 1 1 2 3 3 5 4 23 5 15 6 4 7 6 8 7 9 22 10 24 11 16 12 19 13
REMARK INDEX MAP 20 14 21 15 9 16 10 17 17 18 18 19 13 20 2 21 11 22 12 23
REMARK INDEX MAP 14 24 32 25
ROOT
ATOM      1  C   UNL     1      63.937  29.881 117.181  1.00  0.00    +0.101 C 
ENDROOT
BRANCH   1   2
ATOM      2  C   UNL     1      65.351  30.036 117.812  1.00  0.00    +0.225 C 
ATOM      3  O   UNL     1      66.059  29.017 118.006  1.00  0.00    -0.275 OA
ATOM      4  N   UNL     1      65.759  31.285 118.125  1.00  0.00    -0.344 N 
ATOM      5  H   UNL     1      65.145  32.032 117.940  1.00  0.00    +0.164 HD
BRANCH   4   6
ATOM      6  C   UNL     1      67.102  31.606 118.742  1.00  0.00    +0.176 C 
BRANCH   6   7
ATOM      7  C   UNL     1      66.802  32.386 120.100  1.00  0.00    +0.242 C 
ATOM      8  O   UNL     1      65.724  32.995 120.275  1.00  0.00    -0.273 OA
ATOM      9  N   UNL     1      67.801  32.318 121.024  1.00  0.00    -0.357 N 
ATOM     10  C   UNL     1      67.752  32.958 122.359  1.00  0.00    +0.142 C 
ATOM     11  H   UNL     1      68.610  31.809 120.788  1.00  0.00    +0.163 HD
ENDBRANCH   6   7
BRANCH   6  12
ATOM     12  C   UNL     1      68.071  32.390 117.715  1.00  0.00    -0.009 C 
ATOM     13  C   UNL     1      67.926  33.956 117.833  1.00  0.00    +0.013 C 
ATOM     14  C   UNL     1      69.558  32.020 117.963  1.00  0.00    +0.013 C 
ATOM     15  C   UNL     1      67.797  32.049 116.199  1.00  0.00    +0.013 C 
ENDBRANCH   6  12
ENDBRANCH   4   6
ENDBRANCH   1   2
BRANCH   1  16
ATOM     16  C   UNL     1      62.931  29.110 118.131  1.00  0.00    +0.018 C 
BRANCH  16  17
ATOM     17  C   UNL     1      61.555  29.732 118.474  1.00  0.00    -0.017 C 
ATOM     18  C   UNL     1      61.175  30.809 117.431  1.00  0.00    +0.007 C 
ATOM     19  C   UNL     1      60.482  28.666 118.345  1.00  0.00    +0.007 C 
ENDBRANCH  16  17
ENDBRANCH   1  16
BRANCH   1  20
ATOM     20  C   UNL     1      64.168  29.071 115.851  1.00  0.00    +0.166 C 
BRANCH  20  21
ATOM     21  N   UNL     1      64.723  29.876 114.768  1.00  0.00    -0.226 N 
BRANCH  21  22
ATOM     22  C   UNL     1      65.740  29.493 113.993  1.00  0.00    +0.365 C 
ATOM     23  O   UNL     1      65.711  29.487 112.809  1.00  0.00    -0.276 OA
ENDBRANCH  21  22
BRANCH  21  24
ATOM     24  O   UNL     1      64.178  31.017 114.552  1.00  0.00    -0.286 OA
ATOM     25  H   UNL     1      64.363  31.610 115.297  1.00  0.00    +0.246 HD
ENDBRANCH  21  24
ENDBRANCH  20  21
ENDBRANCH   1  20
TORSDOF 10
ENDMDL
MODEL 2
REMARK VINA RESULT:    -6.780      0.310      1.003
REMARK INTER + INTRA:         -11.468
REMARK INTER:                 -10.590
REMARK INTRA:                  -0.879
REMARK UNBOUND:                -0.923
REMARK SMILES CNC(=O)[C@@H](NC(=O)[C@H](CC(C)C)CN(O)C=O)C(C)(C)C
REMARK SMILES IDX 9 1 7 2 8 3 6 4 5 6 3 7 4 8 2 9 1 10 19 12 20 13 21 14 22 15
REMARK SMILES IDX 10 16 11 17 12 18 13 19 14 20 15 21 17 22 18 23 16 24
REMARK H PARENT 6 5 2 11 16 25
REMARK INDEX MAP 8 1 1 2 3 3 5 4 23 5 15 6 4 7 6 8 7 9 22 10 24 11 16 12 19 13
REMARK INDEX MAP 20 14 21 15 9 16 10 17 17 18 18 19 13 20 2 21 11 22 12 23
REMARK INDEX MAP 14 24 32 25
ROOT
ATOM      1  C   UNL     1      64.128  29.989 117.170  1.00  0.00    +0.101 C 
ENDROOT
BRANCH   1   2
ATOM      2  C   UNL     1      65.525  30.210 117.821  1.00  0.00    +0.225 C 
ATOM      3  O   UNL     1      66.259  29.222 118.066  1.00  0.00    -0.275 OA
ATOM      4  N   UNL     1      65.889  31.481 118.095  1.00  0.00    -0.344 N 
ATOM      5  H   UNL     1      65.257  32.202 117.872  1.00  0.00    +0.164 HD
BRANCH   4   6
ATOM      6  C   UNL     1      67.209  31.866 118.725  1.00  0.00    +0.176 C 
BRANCH   6   7
ATOM      7  C   UNL     1      66.868  32.465 120.163  1.00  0.00    +0.242 C 
ATOM      8  O   UNL     1      65.756  32.981 120.405  1.00  0.00    -0.273 OA
ATOM      9  N   UNL     1      67.875  32.354 121.074  1.00  0.00    -0.357 N 
ATOM     10  C   UNL     1      67.793  32.831 122.475  1.00  0.00    +0.142 C 
ATOM     11  H   UNL     1      68.712  31.927 120.783  1.00  0.00    +0.163 HD
ENDBRANCH   6   7
BRANCH   6  12
ATOM     12  C   UNL     1      68.073  32.846 117.775  1.00  0.00    -0.009 C 
ATOM     13  C   UNL     1      67.925  32.481 116.248  1.00  0.00    +0.013 C 
ATOM     14  C   UNL     1      67.642  34.325 117.965  1.00  0.00    +0.013 C 
ATOM     15  C   UNL     1      69.622  32.815 118.073  1.00  0.00    +0.013 C 
ENDBRANCH   6  12
ENDBRANCH   4   6
ENDBRANCH   1   2
BRANCH   1  16
ATOM     16  C   UNL     1      63.143  29.182 118.111  1.00  0.00    +0.018 C 
BRANCH  16  17
ATOM     17  C   UNL     1      61.731  29.739 118.419  1.00  0.00    -0.017 C 
ATOM     18  C   UNL     1      61.349  30.832 117.395  1.00  0.00    +0.007 C 
ATOM     19  C   UNL     1      60.707  28.637 118.218  1.00  0.00    +0.007 C 
ENDBRANCH  16  17
ENDBRANCH   1  16
BRANCH   1  20
ATOM     20  C   UNL     1      64.415  29.180 115.851  1.00  0.00    +0.166 C 
BRANCH  20  21
ATOM     21  N   UNL     1      64.796  30.025 114.722  1.00  0.00    -0.226 N 
BRANCH  21  22
ATOM     22  C   UNL     1      65.795  29.747 113.881  1.00  0.00    +0.365 C 
ATOM     23  O   UNL     1      65.646  29.334 112.781  1.00  0.00    -0.276 OA
ENDBRANCH  21  22
BRANCH  21  24
ATOM     24  O   UNL     1      64.108  31.091 114.534  1.00  0.00    -0.286 OA
ATOM     25  H   UNL     1      64.586  31.853 114.897  1.00  0.00    +0.246 HD
ENDBRANCH  21  24
ENDBRANCH  20  21
ENDBRANCH   1  20
TORSDOF 10
ENDMDL
MODEL 3
REMARK VINA RESULT:    -6.537      1.070      1.364
REMARK INTER + INTRA:         -11.091
REMARK INTER:                 -10.360
REMARK INTRA:                  -0.732
REMARK UNBOUND:                -0.923
REMARK SMILES CNC(=O)[C@@H](NC(=O)[C@H](CC(C)C)CN(O)C=O)C(C)(C)C
REMARK SMILES IDX 9 1 7 2 8 3 6 4 5 6 3 7 4 8 2 9 1 10 19 12 20 13 21 14 22 15
REMARK SMILES IDX 10 16 11 17 12 18 13 19 14 20 15 21 17 22 18 23 16 24
REMARK H PARENT 6 5 2 11 16 25
REMARK INDEX MAP 8 1 1 2 3 3 5 4 23 5 15 6 4 7 6 8 7 9 22 10 24 11 16 12 19 13
REMARK INDEX MAP 20 14 21 15 9 16 10 17 17 18 18 19 13 20 2 21 11 22 12 23
REMARK INDEX MAP 14 24 32 25
ROOT
ATOM      1  C   UNL     1      64.518  30.042 117.089  1.00  0.00    +0.101 C 
ENDROOT
BRANCH   1   2
ATOM      2  C   UNL     1      65.754  30.345 117.986  1.00  0.00    +0.225 C 
ATOM      3  O   UNL     1      66.563  29.424 118.259  1.00  0.00    -0.275 OA
ATOM      4  N   UNL     1      65.902  31.610 118.434  1.00  0.00    -0.344 N 
ATOM      5  H   UNL     1      65.224  32.275 118.174  1.00  0.00    +0.164 HD
BRANCH   4   6
ATOM      6  C   UNL     1      67.045  32.068 119.311  1.00  0.00    +0.176 C 
BRANCH   6   7
ATOM      7  C   UNL     1      66.455  32.213 120.786  1.00  0.00    +0.242 C 
ATOM      8  O   UNL     1      65.489  32.968 121.028  1.00  0.00    -0.273 OA
ATOM      9  N   UNL     1      67.083  31.450 121.723  1.00  0.00    -0.357 N 
ATOM     10  C   UNL     1      66.713  31.411 123.158  1.00  0.00    +0.142 C 
ATOM     11  H   UNL     1      67.833  30.885 121.428  1.00  0.00    +0.163 HD
ENDBRANCH   6   7
BRANCH   6  12
ATOM     12  C   UNL     1      67.757  33.399 118.737  1.00  0.00    -0.009 C 
ATOM     13  C   UNL     1      69.039  33.795 119.564  1.00  0.00    +0.013 C 
ATOM     14  C   UNL     1      68.174  33.209 117.254  1.00  0.00    +0.013 C 
ATOM     15  C   UNL     1      66.826  34.674 118.755  1.00  0.00    +0.013 C 
ENDBRANCH   6  12
ENDBRANCH   4   6
ENDBRANCH   1   2
BRANCH   1  16
ATOM     16  C   UNL     1      63.466  29.100 117.806  1.00  0.00    +0.018 C 
BRANCH  16  17
ATOM     17  C   UNL     1      62.108  29.673 118.282  1.00  0.00    -0.017 C 
ATOM     18  C   UNL     1      61.639  30.802 117.336  1.00  0.00    +0.007 C 
ATOM     19  C   UNL     1      61.046  28.595 118.165  1.00  0.00    +0.007 C 
ENDBRANCH  16  17
ENDBRANCH   1  16
BRANCH   1  20
ATOM     20  C   UNL     1      65.103  29.337 115.809  1.00  0.00    +0.166 C 
BRANCH  20  21
ATOM     21  N   UNL     1      65.127  30.199 114.630  1.00  0.00    -0.226 N 
BRANCH  21  22
ATOM     22  C   UNL     1      66.070  30.155 113.687  1.00  0.00    +0.365 C 
ATOM     23  O   UNL     1      67.229  30.272 113.897  1.00  0.00    -0.276 OA
ENDBRANCH  21  22
BRANCH  21  24
ATOM     24  O   UNL     1      64.163  31.036 114.502  1.00  0.00    -0.286 OA
ATOM     25  H   UNL     1      64.421  31.887 114.889  1.00  0.00    +0.246 HD
ENDBRANCH  21  24
ENDBRANCH  20  21
ENDBRANCH   1  20
TORSDOF 10
ENDMDL
MODEL 4
REMARK VINA RESULT:    -6.383      1.966      3.656
REMARK INTER + INTRA:         -10.851
REMARK INTER:                  -9.596
REMARK INTRA:                  -1.255
REMARK UNBOUND:                -0.923
REMARK SMILES CNC(=O)[C@@H](NC(=O)[C@H](CC(C)C)CN(O)C=O)C(C)(C)C
REMARK SMILES IDX 9 1 7 2 8 3 6 4 5 6 3 7 4 8 2 9 1 10 19 12 20 13 21 14 22 15
REMARK SMILES IDX 10 16 11 17 12 18 13 19 14 20 15 21 17 22 18 23 16 24
REMARK H PARENT 6 5 2 11 16 25
REMARK INDEX MAP 8 1 1 2 3 3 5 4 23 5 15 6 4 7 6 8 7 9 22 10 24 11 16 12 19 13
REMARK INDEX MAP 20 14 21 15 9 16 10 17 17 18 18 19 13 20 2 21 11 22 12 23
REMARK INDEX MAP 14 24 32 25
ROOT
ATOM      1  C   UNL     1      64.144  29.883 116.632  1.00  0.00    +0.101 C 
ENDROOT
BRANCH   1   2
ATOM      2  C   UNL     1      65.373  29.906 117.588  1.00  0.00    +0.225 C 
ATOM      3  O   UNL     1      66.000  28.843 117.817  1.00  0.00    -0.275 OA
ATOM      4  N   UNL     1      65.713  31.092 118.135  1.00  0.00    -0.344 N 
ATOM      5  H   UNL     1      65.171  31.881 117.904  1.00  0.00    +0.164 HD
BRANCH   4   6
ATOM      6  C   UNL     1      66.878  31.285 119.080  1.00  0.00    +0.176 C 
BRANCH   6   7
ATOM      7  C   UNL     1      66.264  31.817 120.453  1.00  0.00    +0.242 C 
ATOM      8  O   UNL     1      65.542  32.837 120.489  1.00  0.00    -0.273 OA
ATOM      9  N   UNL     1      66.588  31.070 121.544  1.00  0.00    -0.357 N 
ATOM     10  C   UNL     1      66.134  31.362 122.924  1.00  0.00    +0.142 C 
ATOM     11  H   UNL     1      67.162  30.282 121.407  1.00  0.00    +0.163 HD
ENDBRANCH   6   7
BRANCH   6  12
ATOM     12  C   UNL     1      68.027  32.226 118.446  1.00  0.00    -0.009 C 
ATOM     13  C   UNL     1      68.951  32.867 119.551  1.00  0.00    +0.013 C 
ATOM     14  C   UNL     1      68.925  31.423 117.468  1.00  0.00    +0.013 C 
ATOM     15  C   UNL     1      67.463  33.437 117.606  1.00  0.00    +0.013 C 
ENDBRANCH   6  12
ENDBRANCH   4   6
ENDBRANCH   1   2
BRANCH   1  16
ATOM     16  C   UNL     1      64.529  30.259 115.143  1.00  0.00    +0.018 C 
BRANCH  16  17
ATOM     17  C   UNL     1      65.998  30.137 114.665  1.00  0.00    -0.017 C 
ATOM     18  C   UNL     1      66.065  29.388 113.315  1.00  0.00    +0.007 C 
ATOM     19  C   UNL     1      66.541  31.524 114.372  1.00  0.00    +0.007 C 
ENDBRANCH  16  17
ENDBRANCH   1  16
BRANCH   1  20
ATOM     20  C   UNL     1      63.143  30.943 117.226  1.00  0.00    +0.166 C 
BRANCH  20  21
ATOM     21  N   UNL     1      61.824  30.393 117.527  1.00  0.00    -0.226 N 
BRANCH  21  22
ATOM     22  C   UNL     1      61.619  29.279 118.232  1.00  0.00    +0.365 C 
ATOM     23  O   UNL     1      61.190  28.273 117.780  1.00  0.00    -0.276 OA
ENDBRANCH  21  22
BRANCH  21  24
ATOM     24  O   UNL     1      60.809  31.044 117.090  1.00  0.00    -0.286 OA
ATOM     25  H   UNL     1      60.147  30.421 116.751  1.00  0.00    +0.246 HD
ENDBRANCH  21  24
ENDBRANCH  20  21
ENDBRANCH   1  20
TORSDOF 10
ENDMDL
MODEL 5
REMARK VINA RESULT:    -6.273      1.865      3.809
REMARK INTER + INTRA:         -10.679
REMARK INTER:                  -9.459
REMARK INTRA:                  -1.220
REMARK UNBOUND:                -0.923
REMARK SMILES CNC(=O)[C@@H](NC(=O)[C@H](CC(C)C)CN(O)C=O)C(C)(C)C
REMARK SMILES IDX 9 1 7 2 8 3 6 4 5 6 3 7 4 8 2 9 1 10 19 12 20 13 21 14 22 15
REMARK SMILES IDX 10 16 11 17 12 18 13 19 14 20 15 21 17 22 18 23 16 24
REMARK H PARENT 6 5 2 11 16 25
REMARK INDEX MAP 8 1 1 2 3 3 5 4 23 5 15 6 4 7 6 8 7 9 22 10 24 11 16 12 19 13
REMARK INDEX MAP 20 14 21 15 9 16 10 17 17 18 18 19 13 20 2 21 11 22 12 23
REMARK INDEX MAP 14 24 32 25
ROOT
ATOM      1  C   UNL     1      64.589  29.694 116.085  1.00  0.00    +0.101 C 
ENDROOT
BRANCH   1   2
ATOM      2  C   UNL     1      65.720  29.763 117.152  1.00  0.00    +0.225 C 
ATOM      3  O   UNL     1      66.297  28.708 117.513  1.00  0.00    -0.275 OA
ATOM      4  N   UNL     1      66.036  30.980 117.645  1.00  0.00    -0.344 N 
ATOM      5  H   UNL     1      65.537  31.759 117.308  1.00  0.00    +0.164 HD
BRANCH   4   6
ATOM      6  C   UNL     1      67.109  31.219 118.683  1.00  0.00    +0.176 C 
BRANCH   6   7
ATOM      7  C   UNL     1      66.363  31.734 119.996  1.00  0.00    +0.242 C 
ATOM      8  O   UNL     1      65.578  32.706 119.958  1.00  0.00    -0.273 OA
ATOM      9  N   UNL     1      66.652  31.027 121.124  1.00  0.00    -0.357 N 
ATOM     10  C   UNL     1      66.080  31.312 122.461  1.00  0.00    +0.142 C 
ATOM     11  H   UNL     1      67.282  30.275 121.045  1.00  0.00    +0.163 HD
ENDBRANCH   6   7
BRANCH   6  12
ATOM     12  C   UNL     1      68.272  32.200 118.141  1.00  0.00    -0.009 C 
ATOM     13  C   UNL     1      67.710  33.320 117.185  1.00  0.00    +0.013 C 
ATOM     14  C   UNL     1      69.009  32.890 119.319  1.00  0.00    +0.013 C 
ATOM     15  C   UNL     1      69.394  31.457 117.316  1.00  0.00    +0.013 C 
ENDBRANCH   6  12
ENDBRANCH   4   6
ENDBRANCH   1   2
BRANCH   1  16
ATOM     16  C   UNL     1      65.014  30.348 114.708  1.00  0.00    +0.018 C 
BRANCH  16  17
ATOM     17  C   UNL     1      66.431  30.101 114.134  1.00  0.00    -0.017 C 
ATOM     18  C   UNL     1      66.340  29.544 112.695  1.00  0.00    +0.007 C 
ATOM     19  C   UNL     1      67.151  31.430 113.997  1.00  0.00    +0.007 C 
ENDBRANCH  16  17
ENDBRANCH   1  16
BRANCH   1  20
ATOM     20  C   UNL     1      63.380  30.479 116.718  1.00  0.00    +0.166 C 
BRANCH  20  21
ATOM     21  N   UNL     1      62.310  29.611 117.201  1.00  0.00    -0.226 N 
BRANCH  21  22
ATOM     22  C   UNL     1      61.193  30.050 117.783  1.00  0.00    +0.365 C 
ATOM     23  O   UNL     1      60.421  30.790 117.273  1.00  0.00    -0.276 OA
ENDBRANCH  21  22
BRANCH  21  24
ATOM     24  O   UNL     1      62.466  28.348 117.035  1.00  0.00    -0.286 OA
ATOM     25  H   UNL     1      61.853  27.868 117.613  1.00  0.00    +0.246 HD
ENDBRANCH  21  24
ENDBRANCH  20  21
ENDBRANCH   1  20
TORSDOF 10
ENDMDL
MODEL 6
REMARK VINA RESULT:    -6.152      1.749      2.463
REMARK INTER + INTRA:         -10.492
REMARK INTER:                  -9.776
REMARK INTRA:                  -0.716
REMARK UNBOUND:                -0.923
REMARK SMILES CNC(=O)[C@@H](NC(=O)[C@H](CC(C)C)CN(O)C=O)C(C)(C)C
REMARK SMILES IDX 9 1 7 2 8 3 6 4 5 6 3 7 4 8 2 9 1 10 19 12 20 13 21 14 22 15
REMARK SMILES IDX 10 16 11 17 12 18 13 19 14 20 15 21 17 22 18 23 16 24
REMARK H PARENT 6 5 2 11 16 25
REMARK INDEX MAP 8 1 1 2 3 3 5 4 23 5 15 6 4 7 6 8 7 9 22 10 24 11 16 12 19 13
REMARK INDEX MAP 20 14 21 15 9 16 10 17 17 18 18 19 13 20 2 21 11 22 12 23
REMARK INDEX MAP 14 24 32 25
ROOT
ATOM      1  C   UNL     1      64.577  30.913 117.653  1.00  0.00    +0.101 C 
ENDROOT
BRANCH   1   2
ATOM      2  C   UNL     1      65.541  31.721 118.570  1.00  0.00    +0.225 C 
ATOM      3  O   UNL     1      65.291  31.823 119.796  1.00  0.00    -0.275 OA
ATOM      4  N   UNL     1      66.624  32.283 117.991  1.00  0.00    -0.344 N 
ATOM      5  H   UNL     1      66.749  32.156 117.023  1.00  0.00    +0.164 HD
BRANCH   4   6
ATOM      6  C   UNL     1      67.656  33.097 118.740  1.00  0.00    +0.176 C 
BRANCH   6   7
ATOM      7  C   UNL     1      67.201  34.621 118.627  1.00  0.00    +0.242 C 
ATOM      8  O   UNL     1      67.134  35.355 119.637  1.00  0.00    -0.273 OA
ATOM      9  N   UNL     1      66.911  35.032 117.362  1.00  0.00    -0.357 N 
ATOM     10  C   UNL     1      66.472  36.402 117.006  1.00  0.00    +0.142 C 
ATOM     11  H   UNL     1      67.000  34.375 116.634  1.00  0.00    +0.163 HD
ENDBRANCH   6   7
BRANCH   6  12
ATOM     12  C   UNL     1      69.156  32.802 118.220  1.00  0.00    -0.009 C 
ATOM     13  C   UNL     1      70.211  32.829 119.391  1.00  0.00    +0.013 C 
ATOM     14  C   UNL     1      69.240  31.417 117.523  1.00  0.00    +0.013 C 
ATOM     15  C   UNL     1      69.675  33.844 117.154  1.00  0.00    +0.013 C 
ENDBRANCH   6  12
ENDBRANCH   4   6
ENDBRANCH   1   2
BRANCH   1  16
ATOM     16  C   UNL     1      63.821  29.762 118.435  1.00  0.00    +0.018 C 
BRANCH  16  17
ATOM     17  C   UNL     1      62.289  29.593 118.279  1.00  0.00    -0.017 C 
ATOM     18  C   UNL     1      61.712  30.714 117.385  1.00  0.00    +0.007 C 
ATOM     19  C   UNL     1      62.006  28.305 117.527  1.00  0.00    +0.007 C 
ENDBRANCH  16  17
ENDBRANCH   1  16
BRANCH   1  20
ATOM     20  C   UNL     1      65.495  30.303 116.529  1.00  0.00    +0.166 C 
BRANCH  20  21
ATOM     21  N   UNL     1      64.772  29.972 115.304  1.00  0.00    -0.226 N 
BRANCH  21  22
ATOM     22  C   UNL     1      64.745  28.756 114.755  1.00  0.00    +0.365 C 
ATOM     23  O   UNL     1      64.514  28.544 113.613  1.00  0.00    -0.276 OA
ENDBRANCH  21  22
BRANCH  21  24
ATOM     24  O   UNL     1      64.116  30.919 114.741  1.00  0.00    -0.286 OA
ATOM     25  H   UNL     1      64.098  31.693 115.326  1.00  0.00    +0.246 HD
ENDBRANCH  21  24
ENDBRANCH  20  21
ENDBRANCH   1  20
TORSDOF 10
ENDMDL
MODEL 7
REMARK VINA RESULT:    -6.128      2.489      6.136
REMARK INTER + INTRA:         -10.455
REMARK INTER:                  -9.678
REMARK INTRA:                  -0.777
REMARK UNBOUND:                -0.923
REMARK SMILES CNC(=O)[C@@H](NC(=O)[C@H](CC(C)C)CN(O)C=O)C(C)(C)C
REMARK SMILES IDX 9 1 7 2 8 3 6 4 5 6 3 7 4 8 2 9 1 10 19 12 20 13 21 14 22 15
REMARK SMILES IDX 10 16 11 17 12 18 13 19 14 20 15 21 17 22 18 23 16 24
REMARK H PARENT 6 5 2 11 16 25
REMARK INDEX MAP 8 1 1 2 3 3 5 4 23 5 15 6 4 7 6 8 7 9 22 10 24 11 16 12 19 13
REMARK INDEX MAP 20 14 21 15 9 16 10 17 17 18 18 19 13 20 2 21 11 22 12 23
REMARK INDEX MAP 14 24 32 25
ROOT
ATOM      1  C   UNL     1      65.239  29.367 116.386  1.00  0.00    +0.101 C 
ENDROOT
BRANCH   1   2
ATOM      2  C   UNL     1      65.300  29.912 114.929  1.00  0.00    +0.225 C 
ATOM      3  O   UNL     1      64.471  30.778 114.556  1.00  0.00    -0.275 OA
ATOM      4  N   UNL     1      66.263  29.420 114.121  1.00  0.00    -0.344 N 
ATOM      5  H   UNL     1      66.875  28.743 114.490  1.00  0.00    +0.164 HD
BRANCH   4   6
ATOM      6  C   UNL     1      66.458  29.844 112.682  1.00  0.00    +0.176 C 
BRANCH   6   7
ATOM      7  C   UNL     1      65.986  28.616 111.780  1.00  0.00    +0.242 C 
ATOM      8  O   UNL     1      65.659  27.523 112.290  1.00  0.00    -0.273 OA
ATOM      9  N   UNL     1      65.965  28.873 110.442  1.00  0.00    -0.357 N 
ATOM     10  C   UNL     1      65.560  27.894 109.407  1.00  0.00    +0.142 C 
ATOM     11  H   UNL     1      66.238  29.771 110.143  1.00  0.00    +0.163 HD
ENDBRANCH   6   7
BRANCH   6  12
ATOM     12  C   UNL     1      67.965  30.349 112.397  1.00  0.00    -0.009 C 
ATOM     13  C   UNL     1      68.555  31.179 113.601  1.00  0.00    +0.013 C 
ATOM     14  C   UNL     1      68.910  29.149 112.124  1.00  0.00    +0.013 C 
ATOM     15  C   UNL     1      68.091  31.284 111.131  1.00  0.00    +0.013 C 
ENDBRANCH   6  12
ENDBRANCH   4   6
ENDBRANCH   1   2
BRANCH   1  16
ATOM     16  C   UNL     1      63.792  28.861 116.783  1.00  0.00    +0.018 C 
BRANCH  16  17
ATOM     17  C   UNL     1      62.966  29.626 117.847  1.00  0.00    -0.017 C 
ATOM     18  C   UNL     1      62.061  30.680 117.170  1.00  0.00    +0.007 C 
ATOM     19  C   UNL     1      62.008  28.660 118.520  1.00  0.00    +0.007 C 
ENDBRANCH  16  17
ENDBRANCH   1  16
BRANCH   1  20
ATOM     20  C   UNL     1      65.666  30.579 117.295  1.00  0.00    +0.166 C 
BRANCH  20  21
ATOM     21  N   UNL     1      67.016  30.451 117.839  1.00  0.00    -0.226 N 
BRANCH  21  22
ATOM     22  C   UNL     1      68.095  31.030 117.310  1.00  0.00    +0.365 C 
ATOM     23  O   UNL     1      68.160  32.173 117.008  1.00  0.00    -0.276 OA
ENDBRANCH  21  22
BRANCH  21  24
ATOM     24  O   UNL     1      67.150  29.745 118.902  1.00  0.00    -0.286 OA
ATOM     25  H   UNL     1      67.055  28.805 118.680  1.00  0.00    +0.246 HD
ENDBRANCH  21  24
ENDBRANCH  20  21
ENDBRANCH   1  20
TORSDOF 10
ENDMDL
MODEL 8
REMARK VINA RESULT:    -5.973      1.585      2.147
REMARK INTER + INTRA:         -10.214
REMARK INTER:                  -9.301
REMARK INTRA:                  -0.913
REMARK UNBOUND:                -0.923
REMARK SMILES CNC(=O)[C@@H](NC(=O)[C@H](CC(C)C)CN(O)C=O)C(C)(C)C
REMARK SMILES IDX 9 1 7 2 8 3 6 4 5 6 3 7 4 8 2 9 1 10 19 12 20 13 21 14 22 15
REMARK SMILES IDX 10 16 11 17 12 18 13 19 14 20 15 21 17 22 18 23 16 24
REMARK H PARENT 6 5 2 11 16 25
REMARK INDEX MAP 8 1 1 2 3 3 5 4 23 5 15 6 4 7 6 8 7 9 22 10 24 11 16 12 19 13
REMARK INDEX MAP 20 14 21 15 9 16 10 17 17 18 18 19 13 20 2 21 11 22 12 23
REMARK INDEX MAP 14 24 32 25
ROOT
ATOM      1  C   UNL     1      64.680  29.756 116.535  1.00  0.00    +0.101 C 
ENDROOT
BRANCH   1   2
ATOM      2  C   UNL     1      66.132  29.990 117.045  1.00  0.00    +0.225 C 
ATOM      3  O   UNL     1      66.684  29.123 117.766  1.00  0.00    -0.275 OA
ATOM      4  N   UNL     1      66.742  31.138 116.677  1.00  0.00    -0.344 N 
ATOM      5  H   UNL     1      66.242  31.766 116.109  1.00  0.00    +0.164 HD
BRANCH   4   6
ATOM      6  C   UNL     1      68.149  31.516 117.086  1.00  0.00    +0.176 C 
BRANCH   6   7
ATOM      7  C   UNL     1      68.013  32.436 118.381  1.00  0.00    +0.242 C 
ATOM      8  O   UNL     1      68.984  32.630 119.145  1.00  0.00    -0.273 OA
ATOM      9  N   UNL     1      66.777  32.979 118.562  1.00  0.00    -0.357 N 
ATOM     10  C   UNL     1      66.409  33.870 119.688  1.00  0.00    +0.142 C 
ATOM     11  H   UNL     1      66.081  32.766 117.899  1.00  0.00    +0.163 HD
ENDBRANCH   6   7
BRANCH   6  12
ATOM     12  C   UNL     1      68.976  32.182 115.870  1.00  0.00    -0.009 C 
ATOM     13  C   UNL     1      68.526  31.626 114.465  1.00  0.00    +0.013 C 
ATOM     14  C   UNL     1      68.802  33.725 115.859  1.00  0.00    +0.013 C 
ATOM     15  C   UNL     1      70.532  31.932 115.949  1.00  0.00    +0.013 C 
ENDBRANCH   6  12
ENDBRANCH   4   6
ENDBRANCH   1   2
BRANCH   1  16
ATOM     16  C   UNL     1      63.716  29.229 117.676  1.00  0.00    +0.018 C 
BRANCH  16  17
ATOM     17  C   UNL     1      62.180  29.291 117.486  1.00  0.00    -0.017 C 
ATOM     18  C   UNL     1      61.459  28.849 118.779  1.00  0.00    +0.007 C 
ATOM     19  C   UNL     1      61.763  30.736 117.277  1.00  0.00    +0.007 C 
ENDBRANCH  16  17
ENDBRANCH   1  16
BRANCH   1  20
ATOM     20  C   UNL     1      64.815  28.685 115.391  1.00  0.00    +0.166 C 
BRANCH  20  21
ATOM     21  N   UNL     1      65.189  29.256 114.100  1.00  0.00    -0.226 N 
BRANCH  21  22
ATOM     22  C   UNL     1      65.654  28.544 113.071  1.00  0.00    +0.365 C 
ATOM     23  O   UNL     1      65.638  28.910 111.945  1.00  0.00    -0.276 OA
ENDBRANCH  21  22
BRANCH  21  24
ATOM     24  O   UNL     1      65.042  30.522 113.959  1.00  0.00    -0.286 OA
ATOM     25  H   UNL     1      65.292  30.779 113.058  1.00  0.00    +0.246 HD
ENDBRANCH  21  24
ENDBRANCH  20  21
ENDBRANCH   1  20
TORSDOF 10
ENDMDL
MODEL 9
REMARK VINA RESULT:    -5.857      1.932      5.411
REMARK INTER + INTRA:         -10.033
REMARK INTER:                  -9.173
REMARK INTRA:                  -0.860
REMARK UNBOUND:                -0.923
REMARK SMILES CNC(=O)[C@@H](NC(=O)[C@H](CC(C)C)CN(O)C=O)C(C)(C)C
REMARK SMILES IDX 9 1 7 2 8 3 6 4 5 6 3 7 4 8 2 9 1 10 19 12 20 13 21 14 22 15
REMARK SMILES IDX 10 16 11 17 12 18 13 19 14 20 15 21 17 22 18 23 16 24
REMARK H PARENT 6 5 2 11 16 25
REMARK INDEX MAP 8 1 1 2 3 3 5 4 23 5 15 6 4 7 6 8 7 9 22 10 24 11 16 12 19 13
REMARK INDEX MAP 20 14 21 15 9 16 10 17 17 18 18 19 13 20 2 21 11 22 12 23
REMARK INDEX MAP 14 24 32 25
ROOT
ATOM      1  C   UNL     1      64.709  29.557 117.348  1.00  0.00    +0.101 C 
ENDROOT
BRANCH   1   2
ATOM      2  C   UNL     1      64.851  30.155 115.918  1.00  0.00    +0.225 C 
ATOM      3  O   UNL     1      63.836  30.597 115.327  1.00  0.00    -0.275 OA
ATOM      4  N   UNL     1      66.086  30.173 115.372  1.00  0.00    -0.344 N 
ATOM      5  H   UNL     1      66.831  29.808 115.901  1.00  0.00    +0.164 HD
BRANCH   4   6
ATOM      6  C   UNL     1      66.394  30.719 113.995  1.00  0.00    +0.176 C 
BRANCH   6   7
ATOM      7  C   UNL     1      66.616  29.457 113.046  1.00  0.00    +0.242 C 
ATOM      8  O   UNL     1      67.337  28.498 113.398  1.00  0.00    -0.273 OA
ATOM      9  N   UNL     1      65.957  29.522 111.856  1.00  0.00    -0.357 N 
ATOM     10  C   UNL     1      66.005  28.471 110.813  1.00  0.00    +0.142 C 
ATOM     11  H   UNL     1      65.411  30.322 111.677  1.00  0.00    +0.163 HD
ENDBRANCH   6   7
BRANCH   6  12
ATOM     12  C   UNL     1      67.621  31.769 114.019  1.00  0.00    -0.009 C 
ATOM     13  C   UNL     1      67.127  33.266 113.967  1.00  0.00    +0.013 C 
ATOM     14  C   UNL     1      68.484  31.586 115.295  1.00  0.00    +0.013 C 
ATOM     15  C   UNL     1      68.618  31.607 112.806  1.00  0.00    +0.013 C 
ENDBRANCH   6  12
ENDBRANCH   4   6
ENDBRANCH   1   2
BRANCH   1  16
ATOM     16  C   UNL     1      63.526  30.220 118.166  1.00  0.00    +0.018 C 
BRANCH  16  17
ATOM     17  C   UNL     1      62.218  29.430 118.421  1.00  0.00    -0.017 C 
ATOM     18  C   UNL     1      61.012  30.172 117.802  1.00  0.00    +0.007 C 
ATOM     19  C   UNL     1      62.286  28.106 117.681  1.00  0.00    +0.007 C 
ENDBRANCH  16  17
ENDBRANCH   1  16
BRANCH   1  20
ATOM     20  C   UNL     1      66.089  29.839 118.050  1.00  0.00    +0.166 C 
BRANCH  20  21
ATOM     21  N   UNL     1      66.147  31.135 118.721  1.00  0.00    -0.226 N 
BRANCH  21  22
ATOM     22  C   UNL     1      65.975  31.308 120.032  1.00  0.00    +0.365 C 
ATOM     23  O   UNL     1      65.652  32.332 120.534  1.00  0.00    -0.276 OA
ENDBRANCH  21  22
BRANCH  21  24
ATOM     24  O   UNL     1      66.394  32.159 117.988  1.00  0.00    -0.286 OA
ATOM     25  H   UNL     1      65.638  32.328 117.404  1.00  0.00    +0.246 HD
ENDBRANCH  21  24
ENDBRANCH  20  21
ENDBRANCH   1  20
TORSDOF 10
ENDMDL
MODEL 10
REMARK VINA RESULT:    -5.849      2.698      5.907
REMARK INTER + INTRA:         -10.020
REMARK INTER:                  -9.002
REMARK INTRA:                  -1.018
REMARK UNBOUND:                -0.923
REMARK SMILES CNC(=O)[C@@H](NC(=O)[C@H](CC(C)C)CN(O)C=O)C(C)(C)C
REMARK SMILES IDX 9 1 7 2 8 3 6 4 5 6 3 7 4 8 2 9 1 10 19 12 20 13 21 14 22 15
REMARK SMILES IDX 10 16 11 17 12 18 13 19 14 20 15 21 17 22 18 23 16 24
REMARK H PARENT 6 5 2 11 16 25
REMARK INDEX MAP 8 1 1 2 3 3 5 4 23 5 15 6 4 7 6 8 7 9 22 10 24 11 16 12 19 13
REMARK INDEX MAP 20 14 21 15 9 16 10 17 17 18 18 19 13 20 2 21 11 22 12 23
REMARK INDEX MAP 14 24 32 25
ROOT
ATOM      1  C   UNL     1      67.350  29.569 113.044  1.00  0.00    +0.101 C 
ENDROOT
BRANCH   1   2
ATOM      2  C   UNL     1      66.773  30.444 114.195  1.00  0.00    +0.225 C 
ATOM      3  O   UNL     1      66.731  31.692 114.064  1.00  0.00    -0.275 OA
ATOM      4  N   UNL     1      66.334  29.806 115.301  1.00  0.00    -0.344 N 
ATOM      5  H   UNL     1      66.401  28.824 115.325  1.00  0.00    +0.164 HD
BRANCH   4   6
ATOM      6  C   UNL     1      65.746  30.507 116.505  1.00  0.00    +0.176 C 
BRANCH   6   7
ATOM      7  C   UNL     1      66.959  30.793 117.501  1.00  0.00    +0.242 C 
ATOM      8  O   UNL     1      67.599  29.858 118.030  1.00  0.00    -0.273 OA
ATOM      9  N   UNL     1      67.226  32.113 117.702  1.00  0.00    -0.357 N 
ATOM     10  C   UNL     1      68.305  32.625 118.579  1.00  0.00    +0.142 C 
ATOM     11  H   UNL     1      66.664  32.771 117.233  1.00  0.00    +0.163 HD
ENDBRANCH   6   7
BRANCH   6  12
ATOM     12  C   UNL     1      64.523  29.677 117.154  1.00  0.00    -0.009 C 
ATOM     13  C   UNL     1      64.743  28.118 117.063  1.00  0.00    +0.013 C 
ATOM     14  C   UNL     1      64.328  30.053 118.648  1.00  0.00    +0.013 C 
ATOM     15  C   UNL     1      63.131  29.953 116.463  1.00  0.00    +0.013 C 
ENDBRANCH   6  12
ENDBRANCH   4   6
ENDBRANCH   1   2
BRANCH   1  16
ATOM     16  C   UNL     1      68.554  30.273 112.294  1.00  0.00    +0.018 C 
BRANCH  16  17
ATOM     17  C   UNL     1      69.515  29.438 111.412  1.00  0.00    -0.017 C 
ATOM     18  C   UNL     1      69.435  27.942 111.794  1.00  0.00    +0.007 C 
ATOM     19  C   UNL     1      69.046  29.500 109.970  1.00  0.00    +0.007 C 
ENDBRANCH  16  17
ENDBRANCH   1  16
BRANCH   1  20
ATOM     20  C   UNL     1      66.145  29.343 112.057  1.00  0.00    +0.166 C 
BRANCH  20  21
ATOM     21  N   UNL     1      65.646  27.970 112.053  1.00  0.00    -0.226 N 
BRANCH  21  22
ATOM     22  C   UNL     1      65.658  27.172 110.983  1.00  0.00    +0.365 C 
ATOM     23  O   UNL     1      66.013  27.506 109.904  1.00  0.00    -0.276 OA
ENDBRANCH  21  22
BRANCH  21  24
ATOM     24  O   UNL     1      65.184  27.515 113.159  1.00  0.00    -0.286 OA
ATOM     25  H   UNL     1      65.889  27.054 113.639  1.00  0.00    +0.246 HD
ENDBRANCH  21  24
ENDBRANCH  20  21
ENDBRANCH   1  20
TORSDOF 10
ENDMDL
MODEL 11
REMARK VINA RESULT:    -5.792      2.799      6.130
REMARK INTER + INTRA:          -9.931
REMARK INTER:                  -8.910
REMARK INTRA:                  -1.022
REMARK UNBOUND:                -0.923
REMARK SMILES CNC(=O)[C@@H](NC(=O)[C@H](CC(C)C)CN(O)C=O)C(C)(C)C
REMARK SMILES IDX 9 1 7 2 8 3 6 4 5 6 3 7 4 8 2 9 1 10 19 12 20 13 21 14 22 15
REMARK SMILES IDX 10 16 11 17 12 18 13 19 14 20 15 21 17 22 18 23 16 24
REMARK H PARENT 6 5 2 11 16 25
REMARK INDEX MAP 8 1 1 2 3 3 5 4 23 5 15 6 4 7 6 8 7 9 22 10 24 11 16 12 19 13
REMARK INDEX MAP 20 14 21 15 9 16 10 17 17 18 18 19 13 20 2 21 11 22 12 23
REMARK INDEX MAP 14 24 32 25
ROOT
ATOM      1  C   UNL     1      64.988  30.081 116.565  1.00  0.00    +0.101 C 
ENDROOT
BRANCH   1   2
ATOM      2  C   UNL     1      65.240  30.441 115.071  1.00  0.00    +0.225 C 
ATOM      3  O   UNL     1      64.304  30.911 114.380  1.00  0.00    -0.275 OA
ATOM      4  N   UNL     1      66.481  30.229 114.582  1.00  0.00    -0.344 N 
ATOM      5  H   UNL     1      67.161  29.859 115.190  1.00  0.00    +0.164 HD
BRANCH   4   6
ATOM      6  C   UNL     1      66.889  30.526 113.156  1.00  0.00    +0.176 C 
BRANCH   6   7
ATOM      7  C   UNL     1      66.830  29.140 112.369  1.00  0.00    +0.242 C 
ATOM      8  O   UNL     1      67.308  28.094 112.859  1.00  0.00    -0.273 OA
ATOM      9  N   UNL     1      66.217  29.206 111.155  1.00  0.00    -0.357 N 
ATOM     10  C   UNL     1      66.038  28.051 110.244  1.00  0.00    +0.142 C 
ATOM     11  H   UNL     1      65.870  30.079 110.863  1.00  0.00    +0.163 HD
ENDBRANCH   6   7
BRANCH   6  12
ATOM     12  C   UNL     1      68.313  31.284 113.078  1.00  0.00    -0.009 C 
ATOM     13  C   UNL     1      68.866  31.666 114.504  1.00  0.00    +0.013 C 
ATOM     14  C   UNL     1      69.373  30.403 112.365  1.00  0.00    +0.013 C 
ATOM     15  C   UNL     1      68.268  32.635 112.262  1.00  0.00    +0.013 C 
ENDBRANCH   6  12
ENDBRANCH   4   6
ENDBRANCH   1   2
BRANCH   1  16
ATOM     16  C   UNL     1      66.264  29.454 117.260  1.00  0.00    +0.018 C 
BRANCH  16  17
ATOM     17  C   UNL     1      66.906  30.154 118.484  1.00  0.00    -0.017 C 
ATOM     18  C   UNL     1      67.894  31.249 118.021  1.00  0.00    +0.007 C 
ATOM     19  C   UNL     1      65.828  30.897 119.253  1.00  0.00    +0.007 C 
ENDBRANCH  16  17
ENDBRANCH   1  16
BRANCH   1  20
ATOM     20  C   UNL     1      63.807  29.041 116.542  1.00  0.00    +0.166 C 
BRANCH  20  21
ATOM     21  N   UNL     1      62.549  29.576 117.056  1.00  0.00    -0.226 N 
BRANCH  21  22
ATOM     22  C   UNL     1      61.748  28.926 117.902  1.00  0.00    +0.365 C 
ATOM     23  O   UNL     1      60.625  29.231 118.126  1.00  0.00    -0.276 OA
ENDBRANCH  21  22
BRANCH  21  24
ATOM     24  O   UNL     1      62.217  30.754 116.671  1.00  0.00    -0.286 OA
ATOM     25  H   UNL     1      62.035  30.743 115.718  1.00  0.00    +0.246 HD
ENDBRANCH  21  24
ENDBRANCH  20  21
ENDBRANCH   1  20
TORSDOF 10
ENDMDL
MODEL 12
REMARK VINA RESULT:    -5.780      2.106      4.652
REMARK INTER + INTRA:          -9.914
REMARK INTER:                  -8.592
REMARK INTRA:                  -1.322
REMARK UNBOUND:                -0.923
REMARK SMILES CNC(=O)[C@@H](NC(=O)[C@H](CC(C)C)CN(O)C=O)C(C)(C)C
REMARK SMILES IDX 9 1 7 2 8 3 6 4 5 6 3 7 4 8 2 9 1 10 19 12 20 13 21 14 22 15
REMARK SMILES IDX 10 16 11 17 12 18 13 19 14 20 15 21 17 22 18 23 16 24
REMARK H PARENT 6 5 2 11 16 25
REMARK INDEX MAP 8 1 1 2 3 3 5 4 23 5 15 6 4 7 6 8 7 9 22 10 24 11 16 12 19 13
REMARK INDEX MAP 20 14 21 15 9 16 10 17 17 18 18 19 13 20 2 21 11 22 12 23
REMARK INDEX MAP 14 24 32 25
ROOT
ATOM      1  C   UNL     1      65.290  30.498 118.839  1.00  0.00    +0.101 C 
ENDROOT
BRANCH   1   2
ATOM      2  C   UNL     1      66.350  30.229 117.731  1.00  0.00    +0.225 C 
ATOM      3  O   UNL     1      66.801  29.068 117.574  1.00  0.00    -0.275 OA
ATOM      4  N   UNL     1      66.739  31.278 116.975  1.00  0.00    -0.344 N 
ATOM      5  H   UNL     1      66.336  32.156 117.161  1.00  0.00    +0.164 HD
BRANCH   4   6
ATOM      6  C   UNL     1      67.756  31.185 115.859  1.00  0.00    +0.176 C 
BRANCH   6   7
ATOM      7  C   UNL     1      68.891  32.256 116.191  1.00  0.00    +0.242 C 
ATOM      8  O   UNL     1      70.004  32.220 115.622  1.00  0.00    -0.273 OA
ATOM      9  N   UNL     1      68.536  33.187 117.118  1.00  0.00    -0.357 N 
ATOM     10  C   UNL     1      69.418  34.283 117.585  1.00  0.00    +0.142 C 
ATOM     11  H   UNL     1      67.632  33.129 117.504  1.00  0.00    +0.163 HD
ENDBRANCH   6   7
BRANCH   6  12
ATOM     12  C   UNL     1      67.078  31.351 114.403  1.00  0.00    -0.009 C 
ATOM     13  C   UNL     1      65.599  30.807 114.367  1.00  0.00    +0.013 C 
ATOM     14  C   UNL     1      67.058  32.841 113.967  1.00  0.00    +0.013 C 
ATOM     15  C   UNL     1      67.844  30.584 113.256  1.00  0.00    +0.013 C 
ENDBRANCH   6  12
ENDBRANCH   4   6
ENDBRANCH   1   2
BRANCH   1  16
ATOM     16  C   UNL     1      63.807  30.397 118.295  1.00  0.00    +0.018 C 
BRANCH  16  17
ATOM     17  C   UNL     1      62.942  29.154 118.622  1.00  0.00    -0.017 C 
ATOM     18  C   UNL     1      61.460  29.423 118.274  1.00  0.00    +0.007 C 
ATOM     19  C   UNL     1      63.356  28.008 117.717  1.00  0.00    +0.007 C 
ENDBRANCH  16  17
ENDBRANCH   1  16
BRANCH   1  20
ATOM     20  C   UNL     1      65.591  31.956 119.349  1.00  0.00    +0.166 C 
BRANCH  20  21
ATOM     21  N   UNL     1      66.641  32.014 120.362  1.00  0.00    -0.226 N 
BRANCH  21  22
ATOM     22  C   UNL     1      66.424  31.903 121.674  1.00  0.00    +0.365 C 
ATOM     23  O   UNL     1      66.470  30.883 122.275  1.00  0.00    -0.276 OA
ENDBRANCH  21  22
BRANCH  21  24
ATOM     24  O   UNL     1      67.844  32.168 119.945  1.00  0.00    -0.286 OA
ATOM     25  H   UNL     1      67.925  31.806 119.049  1.00  0.00    +0.246 HD
ENDBRANCH  21  24
ENDBRANCH  20  21
ENDBRANCH   1  20
TORSDOF 10
ENDMDL
MODEL 13
REMARK VINA RESULT:    -5.681      2.301      4.648
REMARK INTER + INTRA:          -9.759
REMARK INTER:                  -8.524
REMARK INTRA:                  -1.235
REMARK UNBOUND:                -0.923
REMARK SMILES CNC(=O)[C@@H](NC(=O)[C@H](CC(C)C)CN(O)C=O)C(C)(C)C
REMARK SMILES IDX 9 1 7 2 8 3 6 4 5 6 3 7 4 8 2 9 1 10 19 12 20 13 21 14 22 15
REMARK SMILES IDX 10 16 11 17 12 18 13 19 14 20 15 21 17 22 18 23 16 24
REMARK H PARENT 6 5 2 11 16 25
REMARK INDEX MAP 8 1 1 2 3 3 5 4 23 5 15 6 4 7 6 8 7 9 22 10 24 11 16 12 19 13
REMARK INDEX MAP 20 14 21 15 9 16 10 17 17 18 18 19 13 20 2 21 11 22 12 23
REMARK INDEX MAP 14 24 32 25
ROOT
ATOM      1  C   UNL     1      65.644  30.476 119.251  1.00  0.00    +0.101 C 
ENDROOT
BRANCH   1   2
ATOM      2  C   UNL     1      66.838  30.304 118.266  1.00  0.00    +0.225 C 
ATOM      3  O   UNL     1      66.978  29.222 117.645  1.00  0.00    -0.275 OA
ATOM      4  N   UNL     1      67.680  31.349 118.122  1.00  0.00    -0.344 N 
ATOM      5  H   UNL     1      67.501  32.163 118.645  1.00  0.00    +0.164 HD
BRANCH   4   6
ATOM      6  C   UNL     1      68.885  31.345 117.207  1.00  0.00    +0.176 C 
BRANCH   6   7
ATOM      7  C   UNL     1      70.132  31.787 118.098  1.00  0.00    +0.242 C 
ATOM      8  O   UNL     1      71.286  31.374 117.850  1.00  0.00    -0.273 OA
ATOM      9  N   UNL     1      69.827  32.640 119.115  1.00  0.00    -0.357 N 
ATOM     10  C   UNL     1      70.815  33.191 120.071  1.00  0.00    +0.142 C 
ATOM     11  H   UNL     1      68.885  32.908 119.221  1.00  0.00    +0.163 HD
ENDBRANCH   6   7
BRANCH   6  12
ATOM     12  C   UNL     1      68.648  32.242 115.886  1.00  0.00    -0.009 C 
ATOM     13  C   UNL     1      67.509  31.660 114.965  1.00  0.00    +0.013 C 
ATOM     14  C   UNL     1      68.269  33.699 116.266  1.00  0.00    +0.013 C 
ATOM     15  C   UNL     1      69.923  32.363 114.964  1.00  0.00    +0.013 C 
ENDBRANCH   6  12
ENDBRANCH   4   6
ENDBRANCH   1   2
BRANCH   1  16
ATOM     16  C   UNL     1      64.247  30.520 118.507  1.00  0.00    +0.018 C 
BRANCH  16  17
ATOM     17  C   UNL     1      63.531  29.202 118.119  1.00  0.00    -0.017 C 
ATOM     18  C   UNL     1      62.035  29.270 118.499  1.00  0.00    +0.007 C 
ATOM     19  C   UNL     1      63.546  29.055 116.608  1.00  0.00    +0.007 C 
ENDBRANCH  16  17
ENDBRANCH   1  16
BRANCH   1  20
ATOM     20  C   UNL     1      65.916  31.838 119.991  1.00  0.00    +0.166 C 
BRANCH  20  21
ATOM     21  N   UNL     1      66.634  31.681 121.253  1.00  0.00    -0.226 N 
BRANCH  21  22
ATOM     22  C   UNL     1      66.095  31.177 122.365  1.00  0.00    +0.365 C 
ATOM     23  O   UNL     1      66.720  30.739 123.270  1.00  0.00    -0.276 OA
ENDBRANCH  21  22
BRANCH  21  24
ATOM     24  O   UNL     1      67.864  32.045 121.272  1.00  0.00    -0.286 OA
ATOM     25  H   UNL     1      68.391  31.430 120.738  1.00  0.00    +0.246 HD
ENDBRANCH  21  24
ENDBRANCH  20  21
ENDBRANCH   1  20
TORSDOF 10
ENDMDL
MODEL 14
REMARK VINA RESULT:    -5.558      2.192      4.572
REMARK INTER + INTRA:          -9.567
REMARK INTER:                  -8.626
REMARK INTRA:                  -0.941
REMARK UNBOUND:                -0.923
REMARK SMILES CNC(=O)[C@@H](NC(=O)[C@H](CC(C)C)CN(O)C=O)C(C)(C)C
REMARK SMILES IDX 9 1 7 2 8 3 6 4 5 6 3 7 4 8 2 9 1 10 19 12 20 13 21 14 22 15
REMARK SMILES IDX 10 16 11 17 12 18 13 19 14 20 15 21 17 22 18 23 16 24
REMARK H PARENT 6 5 2 11 16 25
REMARK INDEX MAP 8 1 1 2 3 3 5 4 23 5 15 6 4 7 6 8 7 9 22 10 24 11 16 12 19 13
REMARK INDEX MAP 20 14 21 15 9 16 10 17 17 18 18 19 13 20 2 21 11 22 12 23
REMARK INDEX MAP 14 24 32 25
ROOT
ATOM      1  C   UNL     1      66.386  29.963 118.467  1.00  0.00    +0.101 C 
ENDROOT
BRANCH   1   2
ATOM      2  C   UNL     1      66.184  31.236 119.339  1.00  0.00    +0.225 C 
ATOM      3  O   UNL     1      65.173  31.957 119.159  1.00  0.00    -0.275 OA
ATOM      4  N   UNL     1      67.126  31.509 120.268  1.00  0.00    -0.344 N 
ATOM      5  H   UNL     1      67.889  30.893 120.348  1.00  0.00    +0.164 HD
BRANCH   4   6
ATOM      6  C   UNL     1      67.079  32.704 121.194  1.00  0.00    +0.176 C 
BRANCH   6   7
ATOM      7  C   UNL     1      68.417  33.532 120.935  1.00  0.00    +0.242 C 
ATOM      8  O   UNL     1      68.547  34.703 121.351  1.00  0.00    -0.273 OA
ATOM      9  N   UNL     1      69.376  32.854 120.244  1.00  0.00    -0.357 N 
ATOM     10  C   UNL     1      70.702  33.411 119.887  1.00  0.00    +0.142 C 
ATOM     11  H   UNL     1      69.174  31.932 119.964  1.00  0.00    +0.163 HD
ENDBRANCH   6   7
BRANCH   6  12
ATOM     12  C   UNL     1      66.842  32.272 122.732  1.00  0.00    -0.009 C 
ATOM     13  C   UNL     1      68.190  31.908 123.465  1.00  0.00    +0.013 C 
ATOM     14  C   UNL     1      66.148  33.410 123.528  1.00  0.00    +0.013 C 
ATOM     15  C   UNL     1      65.910  31.009 122.900  1.00  0.00    +0.013 C 
ENDBRANCH   6  12
ENDBRANCH   4   6
ENDBRANCH   1   2
BRANCH   1  16
ATOM     16  C   UNL     1      67.437  30.185 117.304  1.00  0.00    +0.018 C 
BRANCH  16  17
ATOM     17  C   UNL     1      67.561  31.570 116.623  1.00  0.00    -0.017 C 
ATOM     18  C   UNL     1      69.025  32.064 116.667  1.00  0.00    +0.007 C 
ATOM     19  C   UNL     1      67.239  31.428 115.146  1.00  0.00    +0.007 C 
ENDBRANCH  16  17
ENDBRANCH   1  16
BRANCH   1  20
ATOM     20  C   UNL     1      64.964  29.646 117.871  1.00  0.00    +0.166 C 
BRANCH  20  21
ATOM     21  N   UNL     1      64.997  28.695 116.762  1.00  0.00    -0.226 N 
BRANCH  21  22
ATOM     22  C   UNL     1      64.461  28.924 115.562  1.00  0.00    +0.365 C 
ATOM     23  O   UNL     1      64.931  28.554 114.540  1.00  0.00    -0.276 OA
ENDBRANCH  21  22
BRANCH  21  24
ATOM     24  O   UNL     1      65.595  27.579 116.970  1.00  0.00    -0.286 OA
ATOM     25  H   UNL     1      66.541  27.679 116.780  1.00  0.00    +0.246 HD
ENDBRANCH  21  24
ENDBRANCH  20  21
ENDBRANCH   1  20
TORSDOF 10
ENDMDL
MODEL 15
REMARK VINA RESULT:    -5.528      4.673      7.667
REMARK INTER + INTRA:          -9.522
REMARK INTER:                  -8.217
REMARK INTRA:                  -1.305
REMARK UNBOUND:                -0.923
REMARK SMILES CNC(=O)[C@@H](NC(=O)[C@H](CC(C)C)CN(O)C=O)C(C)(C)C
REMARK SMILES IDX 9 1 7 2 8 3 6 4 5 6 3 7 4 8 2 9 1 10 19 12 20 13 21 14 22 15
REMARK SMILES IDX 10 16 11 17 12 18 13 19 14 20 15 21 17 22 18 23 16 24
REMARK H PARENT 6 5 2 11 16 25
REMARK INDEX MAP 8 1 1 2 3 3 5 4 23 5 15 6 4 7 6 8 7 9 22 10 24 11 16 12 19 13
REMARK INDEX MAP 20 14 21 15 9 16 10 17 17 18 18 19 13 20 2 21 11 22 12 23
REMARK INDEX MAP 14 24 32 25
ROOT
ATOM      1  C   UNL     1      66.707  30.043 113.194  1.00  0.00    +0.101 C 
ENDROOT
BRANCH   1   2
ATOM      2  C   UNL     1      68.076  30.499 112.611  1.00  0.00    +0.225 C 
ATOM      3  O   UNL     1      68.554  31.610 112.946  1.00  0.00    -0.275 OA
ATOM      4  N   UNL     1      68.698  29.658 111.756  1.00  0.00    -0.344 N 
ATOM      5  H   UNL     1      68.258  28.804 111.544  1.00  0.00    +0.164 HD
BRANCH   4   6
ATOM      6  C   UNL     1      70.032  29.950 111.104  1.00  0.00    +0.176 C 
BRANCH   6   7
ATOM      7  C   UNL     1      69.709  30.593 109.680  1.00  0.00    +0.242 C 
ATOM      8  O   UNL     1      68.904  30.052 108.891  1.00  0.00    -0.273 OA
ATOM      9  N   UNL     1      70.370  31.755 109.422  1.00  0.00    -0.357 N 
ATOM     10  C   UNL     1      70.232  32.538 108.171  1.00  0.00    +0.142 C 
ATOM     11  H   UNL     1      70.981  32.099 110.114  1.00  0.00    +0.163 HD
ENDBRANCH   6   7
BRANCH   6  12
ATOM     12  C   UNL     1      70.982  28.645 111.054  1.00  0.00    -0.009 C 
ATOM     13  C   UNL     1      70.154  27.304 111.015  1.00  0.00    +0.013 C 
ATOM     14  C   UNL     1      71.909  28.681 109.810  1.00  0.00    +0.013 C 
ATOM     15  C   UNL     1      71.946  28.516 112.297  1.00  0.00    +0.013 C 
ENDBRANCH   6  12
ENDBRANCH   4   6
ENDBRANCH   1   2
BRANCH   1  16
ATOM     16  C   UNL     1      66.510  30.492 114.699  1.00  0.00    +0.018 C 
BRANCH  16  17
ATOM     17  C   UNL     1      65.886  29.515 115.727  1.00  0.00    -0.017 C 
ATOM     18  C   UNL     1      66.503  29.740 117.126  1.00  0.00    +0.007 C 
ATOM     19  C   UNL     1      64.413  29.840 115.890  1.00  0.00    +0.007 C 
ENDBRANCH  16  17
ENDBRANCH   1  16
BRANCH   1  20
ATOM     20  C   UNL     1      66.717  28.473 113.085  1.00  0.00    +0.166 C 
BRANCH  20  21
ATOM     21  N   UNL     1      65.620  27.937 112.283  1.00  0.00    -0.226 N 
BRANCH  21  22
ATOM     22  C   UNL     1      65.750  27.505 111.028  1.00  0.00    +0.365 C 
ATOM     23  O   UNL     1      66.709  27.685 110.356  1.00  0.00    -0.276 OA
ENDBRANCH  21  22
BRANCH  21  24
ATOM     24  O   UNL     1      64.467  27.874 112.843  1.00  0.00    -0.286 OA
ATOM     25  H   UNL     1      63.776  27.977 112.171  1.00  0.00    +0.246 HD
ENDBRANCH  21  24
ENDBRANCH  20  21
ENDBRANCH   1  20
TORSDOF 10
ENDMDL
MODEL 16
REMARK VINA RESULT:    -5.476      2.205      3.949
REMARK INTER + INTRA:          -9.441
REMARK INTER:                  -8.315
REMARK INTRA:                  -1.126
REMARK UNBOUND:                -0.923
REMARK SMILES CNC(=O)[C@@H](NC(=O)[C@H](CC(C)C)CN(O)C=O)C(C)(C)C
REMARK SMILES IDX 9 1 7 2 8 3 6 4 5 6 3 7 4 8 2 9 1 10 19 12 20 13 21 14 22 15
REMARK SMILES IDX 10 16 11 17 12 18 13 19 14 20 15 21 17 22 18 23 16 24
REMARK H PARENT 6 5 2 11 16 25
REMARK INDEX MAP 8 1 1 2 3 3 5 4 23 5 15 6 4 7 6 8 7 9 22 10 24 11 16 12 19 13
REMARK INDEX MAP 20 14 21 15 9 16 10 17 17 18 18 19 13 20 2 21 11 22 12 23
REMARK INDEX MAP 14 24 32 25
ROOT
ATOM      1  C   UNL     1      64.905  29.721 116.833  1.00  0.00    +0.101 C 
ENDROOT
BRANCH   1   2
ATOM      2  C   UNL     1      66.356  30.142 117.204  1.00  0.00    +0.225 C 
ATOM      3  O   UNL     1      67.064  29.378 117.905  1.00  0.00    -0.275 OA
ATOM      4  N   UNL     1      66.795  31.333 116.743  1.00  0.00    -0.344 N 
ATOM      5  H   UNL     1      66.178  31.874 116.199  1.00  0.00    +0.164 HD
BRANCH   4   6
ATOM      6  C   UNL     1      68.176  31.888 117.012  1.00  0.00    +0.176 C 
BRANCH   6   7
ATOM      7  C   UNL     1      68.068  32.743 118.355  1.00  0.00    +0.242 C 
ATOM      8  O   UNL     1      68.919  32.635 119.264  1.00  0.00    -0.273 OA
ATOM      9  N   UNL     1      66.996  33.582 118.405  1.00  0.00    -0.357 N 
ATOM     10  C   UNL     1      66.687  34.477 119.545  1.00  0.00    +0.142 C 
ATOM     11  H   UNL     1      66.386  33.594 117.633  1.00  0.00    +0.163 HD
ENDBRANCH   6   7
BRANCH   6  12
ATOM     12  C   UNL     1      68.764  32.697 115.744  1.00  0.00    -0.009 C 
ATOM     13  C   UNL     1      69.617  31.775 114.792  1.00  0.00    +0.013 C 
ATOM     14  C   UNL     1      67.619  33.330 114.910  1.00  0.00    +0.013 C 
ATOM     15  C   UNL     1      69.712  33.895 116.140  1.00  0.00    +0.013 C 
ENDBRANCH   6  12
ENDBRANCH   4   6
ENDBRANCH   1   2
BRANCH   1  16
ATOM     16  C   UNL     1      64.665  29.688 115.268  1.00  0.00    +0.018 C 
BRANCH  16  17
ATOM     17  C   UNL     1      65.726  29.057 114.332  1.00  0.00    -0.017 C 
ATOM     18  C   UNL     1      65.056  28.072 113.347  1.00  0.00    +0.007 C 
ATOM     19  C   UNL     1      66.325  30.143 113.457  1.00  0.00    +0.007 C 
ENDBRANCH  16  17
ENDBRANCH   1  16
BRANCH   1  20
ATOM     20  C   UNL     1      63.979  30.799 117.509  1.00  0.00    +0.166 C 
BRANCH  20  21
ATOM     21  N   UNL     1      62.553  30.541 117.324  1.00  0.00    -0.226 N 
BRANCH  21  22
ATOM     22  C   UNL     1      61.890  29.542 117.909  1.00  0.00    +0.365 C 
ATOM     23  O   UNL     1      62.231  29.010 118.910  1.00  0.00    -0.276 OA
ENDBRANCH  21  22
BRANCH  21  24
ATOM     24  O   UNL     1      61.912  31.345 116.557  1.00  0.00    -0.286 OA
ATOM     25  H   UNL     1      61.329  31.906 117.092  1.00  0.00    +0.246 HD
ENDBRANCH  21  24
ENDBRANCH  20  21
ENDBRANCH   1  20
TORSDOF 10
ENDMDL
MODEL 17
REMARK VINA RESULT:    -5.391      4.903      8.214
REMARK INTER + INTRA:          -9.309
REMARK INTER:                  -8.642
REMARK INTRA:                  -0.667
REMARK UNBOUND:                -0.923
REMARK SMILES CNC(=O)[C@@H](NC(=O)[C@H](CC(C)C)CN(O)C=O)C(C)(C)C
REMARK SMILES IDX 9 1 7 2 8 3 6 4 5 6 3 7 4 8 2 9 1 10 19 12 20 13 21 14 22 15
REMARK SMILES IDX 10 16 11 17 12 18 13 19 14 20 15 21 17 22 18 23 16 24
REMARK H PARENT 6 5 2 11 16 25
REMARK INDEX MAP 8 1 1 2 3 3 5 4 23 5 15 6 4 7 6 8 7 9 22 10 24 11 16 12 19 13
REMARK INDEX MAP 20 14 21 15 9 16 10 17 17 18 18 19 13 20 2 21 11 22 12 23
REMARK INDEX MAP 14 24 32 25
ROOT
ATOM      1  C   UNL     1      67.075  29.367 113.106  1.00  0.00    +0.101 C 
ENDROOT
BRANCH   1   2
ATOM      2  C   UNL     1      68.355  29.976 112.463  1.00  0.00    +0.225 C 
ATOM      3  O   UNL     1      68.467  31.223 112.367  1.00  0.00    -0.275 OA
ATOM      4  N   UNL     1      69.303  29.118 112.032  1.00  0.00    -0.344 N 
ATOM      5  H   UNL     1      69.140  28.153 112.144  1.00  0.00    +0.164 HD
BRANCH   4   6
ATOM      6  C   UNL     1      70.602  29.546 111.386  1.00  0.00    +0.176 C 
BRANCH   6   7
ATOM      7  C   UNL     1      70.213  30.262 110.015  1.00  0.00    +0.242 C 
ATOM      8  O   UNL     1      69.587  29.654 109.120  1.00  0.00    -0.273 OA
ATOM      9  N   UNL     1      70.609  31.561 109.924  1.00  0.00    -0.357 N 
ATOM     10  C   UNL     1      70.360  32.433 108.751  1.00  0.00    +0.142 C 
ATOM     11  H   UNL     1      71.095  31.948 110.688  1.00  0.00    +0.163 HD
ENDBRANCH   6   7
BRANCH   6  12
ATOM     12  C   UNL     1      71.639  28.318 111.234  1.00  0.00    -0.009 C 
ATOM     13  C   UNL     1      72.668  28.254 112.428  1.00  0.00    +0.013 C 
ATOM     14  C   UNL     1      70.888  26.962 111.167  1.00  0.00    +0.013 C 
ATOM     15  C   UNL     1      72.513  28.384 109.921  1.00  0.00    +0.013 C 
ENDBRANCH   6  12
ENDBRANCH   4   6
ENDBRANCH   1   2
BRANCH   1  16
ATOM     16  C   UNL     1      66.021  28.892 112.025  1.00  0.00    +0.018 C 
BRANCH  16  17
ATOM     17  C   UNL     1      66.498  28.427 110.626  1.00  0.00    -0.017 C 
ATOM     18  C   UNL     1      65.821  27.091 110.244  1.00  0.00    +0.007 C 
ATOM     19  C   UNL     1      66.022  29.421 109.583  1.00  0.00    +0.007 C 
ENDBRANCH  16  17
ENDBRANCH   1  16
BRANCH   1  20
ATOM     20  C   UNL     1      66.473  30.520 113.992  1.00  0.00    +0.166 C 
BRANCH  20  21
ATOM     21  N   UNL     1      65.215  30.160 114.641  1.00  0.00    -0.226 N 
BRANCH  21  22
ATOM     22  C   UNL     1      65.089  29.184 115.543  1.00  0.00    +0.365 C 
ATOM     23  O   UNL     1      65.969  28.798 116.236  1.00  0.00    -0.276 OA
ENDBRANCH  21  22
BRANCH  21  24
ATOM     24  O   UNL     1      64.178  30.844 114.322  1.00  0.00    -0.286 OA
ATOM     25  H   UNL     1      63.702  31.104 115.126  1.00  0.00    +0.246 HD
ENDBRANCH  21  24
ENDBRANCH  20  21
ENDBRANCH   1  20
TORSDOF 10
ENDMDL
MODEL 18
REMARK VINA RESULT:    -5.356      3.045      5.938
REMARK INTER + INTRA:          -9.254
REMARK INTER:                  -8.174
REMARK INTRA:                  -1.080
REMARK UNBOUND:                -0.923
REMARK SMILES CNC(=O)[C@@H](NC(=O)[C@H](CC(C)C)CN(O)C=O)C(C)(C)C
REMARK SMILES IDX 9 1 7 2 8 3 6 4 5 6 3 7 4 8 2 9 1 10 19 12 20 13 21 14 22 15
REMARK SMILES IDX 10 16 11 17 12 18 13 19 14 20 15 21 17 22 18 23 16 24
REMARK H PARENT 6 5 2 11 16 25
REMARK INDEX MAP 8 1 1 2 3 3 5 4 23 5 15 6 4 7 6 8 7 9 22 10 24 11 16 12 19 13
REMARK INDEX MAP 20 14 21 15 9 16 10 17 17 18 18 19 13 20 2 21 11 22 12 23
REMARK INDEX MAP 14 24 32 25
ROOT
ATOM      1  C   UNL     1      65.861  28.683 114.266  1.00  0.00    +0.101 C 
ENDROOT
BRANCH   1   2
ATOM      2  C   UNL     1      65.913  30.236 114.358  1.00  0.00    +0.225 C 
ATOM      3  O   UNL     1      64.845  30.894 114.342  1.00  0.00    -0.275 OA
ATOM      4  N   UNL     1      67.131  30.812 114.454  1.00  0.00    -0.344 N 
ATOM      5  H   UNL     1      67.921  30.225 114.461  1.00  0.00    +0.164 HD
BRANCH   4   6
ATOM      6  C   UNL     1      67.355  32.304 114.552  1.00  0.00    +0.176 C 
BRANCH   6   7
ATOM      7  C   UNL     1      67.847  32.785 113.113  1.00  0.00    +0.242 C 
ATOM      8  O   UNL     1      67.795  33.988 112.777  1.00  0.00    -0.273 OA
ATOM      9  N   UNL     1      68.321  31.788 112.316  1.00  0.00    -0.357 N 
ATOM     10  C   UNL     1      68.837  31.988 110.941  1.00  0.00    +0.142 C 
ATOM     11  H   UNL     1      68.322  30.872 112.678  1.00  0.00    +0.163 HD
ENDBRANCH   6   7
BRANCH   6  12
ATOM     12  C   UNL     1      68.346  32.692 115.766  1.00  0.00    -0.009 C 
ATOM     13  C   UNL     1      68.155  34.183 116.242  1.00  0.00    +0.013 C 
ATOM     14  C   UNL     1      68.119  31.760 116.987  1.00  0.00    +0.013 C 
ATOM     15  C   UNL     1      69.876  32.551 115.405  1.00  0.00    +0.013 C 
ENDBRANCH   6  12
ENDBRANCH   4   6
ENDBRANCH   1   2
BRANCH   1  16
ATOM     16  C   UNL     1      65.486  28.174 112.814  1.00  0.00    +0.018 C 
BRANCH  16  17
ATOM     17  C   UNL     1      66.410  28.500 111.614  1.00  0.00    -0.017 C 
ATOM     18  C   UNL     1      67.887  28.228 111.982  1.00  0.00    +0.007 C 
ATOM     19  C   UNL     1      66.105  27.542 110.477  1.00  0.00    +0.007 C 
ENDBRANCH  16  17
ENDBRANCH   1  16
BRANCH   1  20
ATOM     20  C   UNL     1      64.758  28.248 115.302  1.00  0.00    +0.166 C 
BRANCH  20  21
ATOM     21  N   UNL     1      65.211  28.299 116.690  1.00  0.00    -0.226 N 
BRANCH  21  22
ATOM     22  C   UNL     1      64.481  28.776 117.700  1.00  0.00    +0.365 C 
ATOM     23  O   UNL     1      63.466  28.294 118.076  1.00  0.00    -0.276 OA
ENDBRANCH  21  22
BRANCH  21  24
ATOM     24  O   UNL     1      66.383  27.839 116.937  1.00  0.00    -0.286 OA
ATOM     25  H   UNL     1      66.306  27.011 117.436  1.00  0.00    +0.246 HD
ENDBRANCH  21  24
ENDBRANCH  20  21
ENDBRANCH   1  20
TORSDOF 10
ENDMDL
MODEL 19
REMARK VINA RESULT:    -5.353      3.555      6.675
REMARK INTER + INTRA:          -9.249
REMARK INTER:                  -7.709
REMARK INTRA:                  -1.540
REMARK UNBOUND:                -0.923
REMARK SMILES CNC(=O)[C@@H](NC(=O)[C@H](CC(C)C)CN(O)C=O)C(C)(C)C
REMARK SMILES IDX 9 1 7 2 8 3 6 4 5 6 3 7 4 8 2 9 1 10 19 12 20 13 21 14 22 15
REMARK SMILES IDX 10 16 11 17 12 18 13 19 14 20 15 21 17 22 18 23 16 24
REMARK H PARENT 6 5 2 11 16 25
REMARK INDEX MAP 8 1 1 2 3 3 5 4 23 5 15 6 4 7 6 8 7 9 22 10 24 11 16 12 19 13
REMARK INDEX MAP 20 14 21 15 9 16 10 17 17 18 18 19 13 20 2 21 11 22 12 23
REMARK INDEX MAP 14 24 32 25
ROOT
ATOM      1  C   UNL     1      66.034  29.419 114.786  1.00  0.00    +0.101 C 
ENDROOT
BRANCH   1   2
ATOM      2  C   UNL     1      66.286  28.861 113.356  1.00  0.00    +0.225 C 
ATOM      3  O   UNL     1      65.377  28.226 112.768  1.00  0.00    -0.275 OA
ATOM      4  N   UNL     1      67.496  29.093 112.802  1.00  0.00    -0.344 N 
ATOM      5  H   UNL     1      68.156  29.600 113.328  1.00  0.00    +0.164 HD
BRANCH   4   6
ATOM      6  C   UNL     1      67.900  28.621 111.424  1.00  0.00    +0.176 C 
BRANCH   6   7
ATOM      7  C   UNL     1      69.444  28.229 111.512  1.00  0.00    +0.242 C 
ATOM      8  O   UNL     1      69.889  27.207 110.946  1.00  0.00    -0.273 OA
ATOM      9  N   UNL     1      70.206  29.096 112.235  1.00  0.00    -0.357 N 
ATOM     10  C   UNL     1      71.664  28.947 112.455  1.00  0.00    +0.142 C 
ATOM     11  H   UNL     1      69.758  29.875 112.638  1.00  0.00    +0.163 HD
ENDBRANCH   6   7
BRANCH   6  12
ATOM     12  C   UNL     1      67.545  29.705 110.281  1.00  0.00    -0.009 C 
ATOM     13  C   UNL     1      66.128  29.453 109.638  1.00  0.00    +0.013 C 
ATOM     14  C   UNL     1      67.567  31.146 110.857  1.00  0.00    +0.013 C 
ATOM     15  C   UNL     1      68.565  29.715 109.077  1.00  0.00    +0.013 C 
ENDBRANCH   6  12
ENDBRANCH   4   6
ENDBRANCH   1   2
BRANCH   1  16
ATOM     16  C   UNL     1      64.600  29.038 115.341  1.00  0.00    +0.018 C 
BRANCH  16  17
ATOM     17  C   UNL     1      64.173  29.482 116.762  1.00  0.00    -0.017 C 
ATOM     18  C   UNL     1      63.034  30.523 116.681  1.00  0.00    +0.007 C 
ATOM     19  C   UNL     1      63.570  28.296 117.493  1.00  0.00    +0.007 C 
ENDBRANCH  16  17
ENDBRANCH   1  16
BRANCH   1  20
ATOM     20  C   UNL     1      66.172  30.981 114.647  1.00  0.00    +0.166 C 
BRANCH  20  21
ATOM     21  N   UNL     1      67.237  31.547 115.470  1.00  0.00    -0.226 N 
BRANCH  21  22
ATOM     22  C   UNL     1      68.464  31.824 115.022  1.00  0.00    +0.365 C 
ATOM     23  O   UNL     1      68.958  31.316 114.074  1.00  0.00    -0.276 OA
ENDBRANCH  21  22
BRANCH  21  24
ATOM     24  O   UNL     1      66.954  31.801 116.695  1.00  0.00    -0.286 OA
ATOM     25  H   UNL     1      67.774  31.866 117.210  1.00  0.00    +0.246 HD
ENDBRANCH  21  24
ENDBRANCH  20  21
ENDBRANCH   1  20
TORSDOF 10
ENDMDL
