REMARK SMILES CNC(=O)[C@@H](NC(=O)[C@H](CC(C)C)CN(O)C=O)C(C)(C)C
REMARK SMILES IDX 9 1 7 2 8 3 6 4 5 6 3 7 4 8 2 9 1 10 19 12 20 13 21 14 22 15
REMARK SMILES IDX 10 16 11 17 12 18 13 19 14 20 15 21 17 22 18 23 16 24
REMARK H PARENT 6 5 2 11 16 25
REMARK INDEX MAP 8 1 1 2 3 3 5 4 23 5 15 6 4 7 6 8 7 9 22 10 24 11 16 12 19 13
REMARK INDEX MAP 20 14 21 15 9 16 10 17 17 18 18 19 13 20 2 21 11 22 12 23
REMARK INDEX MAP 14 24 32 25
ROOT
ATOM      1  C   UNL     1      65.268  30.026 116.452  1.00  0.00    +0.101 C 
ENDROOT
BRANCH   1   2
ATOM      2  C   UNL     1      66.274  30.187 117.629  1.00  0.00    +0.225 C 
ATOM      3  O   UNL     1      66.882  29.180 118.067  1.00  0.00    -0.275 OA
ATOM      4  N   UNL     1      66.450  31.428 118.131  1.00  0.00    -0.344 N 
ATOM      5  H   UNL     1      65.936  32.166 117.731  1.00  0.00    +0.164 HD
BRANCH   4   6
ATOM      6  C   UNL     1      67.389  31.754 119.271  1.00  0.00    +0.176 C 
BRANCH   6   7
ATOM      7  C   UNL     1      66.491  31.847 120.586  1.00  0.00    +0.242 C 
ATOM      8  O   UNL     1      65.406  32.468 120.589  1.00  0.00    -0.273 OA
ATOM      9  N   UNL     1      67.003  31.196 121.667  1.00  0.00    -0.357 N 
ATOM     10  C   UNL     1      66.350  31.137 122.996  1.00  0.00    +0.142 C 
ATOM     11  H   UNL     1      67.865  30.733 121.558  1.00  0.00    +0.163 HD
ENDBRANCH   6   7
BRANCH   6  12
ATOM     12  C   UNL     1      68.279  33.067 118.969  1.00  0.00    -0.009 C 
ATOM     13  C   UNL     1      69.263  33.407 120.153  1.00  0.00    +0.013 C 
ATOM     14  C   UNL     1      69.119  32.883 117.677  1.00  0.00    +0.013 C 
ATOM     15  C   UNL     1      67.424  34.373 118.736  1.00  0.00    +0.013 C 
ENDBRANCH   6  12
ENDBRANCH   4   6
ENDBRANCH   1   2
BRANCH   1  16
ATOM     16  C   UNL     1      64.019  29.134 116.841  1.00  0.00    +0.018 C 
BRANCH  16  17
ATOM     17  C   UNL     1      63.038  29.608 117.942  1.00  0.00    -0.017 C 
ATOM     18  C   UNL     1      62.295  30.885 117.488  1.00  0.00    +0.007 C 
ATOM     19  C   UNL     1      61.951  28.564 118.122  1.00  0.00    +0.007 C 
ENDBRANCH  16  17
ENDBRANCH   1  16
BRANCH   1  20
ATOM     20  C   UNL     1      66.093  29.344 115.298  1.00  0.00    +0.166 C 
BRANCH  20  21
ATOM     21  N   UNL     1      65.323  29.140 114.074  1.00  0.00    -0.226 N 
BRANCH  21  22
ATOM     22  C   UNL     1      64.851  27.958 113.673  1.00  0.00    +0.365 C 
ATOM     23  O   UNL     1      64.213  27.793 112.689  1.00  0.00    -0.276 OA
ENDBRANCH  21  22
BRANCH  21  24
ATOM     24  O   UNL     1      65.083  30.177 113.358  1.00  0.00    -0.286 OA
ATOM     25  H   UNL     1      64.569  29.919 112.577  1.00  0.00    +0.246 HD
ENDBRANCH  21  24
ENDBRANCH  20  21
ENDBRANCH   1  20
TORSDOF 10
