REMARK SMILES O=c1cc(-c2ccc(O)c(O)c2)oc2cc(O)cc(O)c12
REMARK SMILES IDX 13 1 1 2 21 3 14 4 4 5 2 6 3 7 19 8 15 9 16 10 18 11 5 12
REMARK SMILES IDX 12 13 6 14 10 15 7 16 8 17 11 18 9 20 20 22 17 24
REMARK H PARENT 11 19 9 21 20 23 17 25
REMARK INDEX MAP 1 1 3 2 7 3 8 4 9 5 11 6 12 7 13 8 14 9 16 10 17 11 10 12
REMARK INDEX MAP 15 13 18 14 19 15 20 16 21 17 5 18 24 19 6 20 25 21 2 22
REMARK INDEX MAP 22 23 4 24 23 25
ROOT
ATOM      1  O   UNL     1      -0.255   0.648  -0.198  1.00  0.00    -0.456 OA
ATOM      2  O   UNL     1      -2.116  -2.883   0.556  1.00  0.00    -0.289 OA
ATOM      3  C   UNL     1      -2.325  -0.586   0.111  1.00  0.00    +0.107 A 
ATOM      4  C   UNL     1      -1.625   0.592  -0.144  1.00  0.00    +0.146 A 
ATOM      5  C   UNL     1       0.464  -0.520   0.005  1.00  0.00    +0.138 A 
ATOM      6  C   UNL     1      -1.556  -1.816   0.332  1.00  0.00    +0.197 A 
ATOM      7  C   UNL     1      -0.092  -1.712   0.268  1.00  0.00    +0.100 A 
ATOM      8  C   UNL     1      -3.723  -0.575   0.152  1.00  0.00    +0.134 A 
ATOM      9  C   UNL     1      -2.319   1.782  -0.358  1.00  0.00    +0.094 A 
ATOM     10  C   UNL     1      -3.711   1.781  -0.315  1.00  0.00    +0.123 A 
ATOM     11  C   UNL     1      -4.422   0.611  -0.062  1.00  0.00    +0.093 A 
ENDROOT
BRANCH   5  12
ATOM     12  C   UNL     1       1.928  -0.347  -0.062  1.00  0.00    +0.021 A 
ATOM     13  C   UNL     1       2.529   0.758   0.559  1.00  0.00    +0.062 A 
ATOM     14  C   UNL     1       2.743  -1.258  -0.761  1.00  0.00    +0.016 A 
ATOM     15  C   UNL     1       3.906   0.925   0.489  1.00  0.00    +0.158 A 
ATOM     16  C   UNL     1       4.131  -1.081  -0.828  1.00  0.00    +0.051 A 
ATOM     17  C   UNL     1       4.704   0.014  -0.197  1.00  0.00    +0.157 A 
BRANCH  15  18
ATOM     18  O   UNL     1       4.477   2.002   1.105  1.00  0.00    -0.504 OA
ATOM     19  H   UNL     1       3.942   2.616   1.567  1.00  0.00    +0.293 HD
ENDBRANCH  15  18
BRANCH  17  20
ATOM     20  O   UNL     1       6.051   0.243  -0.225  1.00  0.00    -0.504 OA
ATOM     21  H   UNL     1       6.408   0.992   0.211  1.00  0.00    +0.293 HD
ENDBRANCH  17  20
ENDBRANCH   5  12
BRANCH   8  22
ATOM     22  O   UNL     1      -4.470  -1.696   0.396  1.00  0.00    -0.507 OA
ATOM     23  H   UNL     1      -4.046  -2.518   0.546  1.00  0.00    +0.293 HD
ENDBRANCH   8  22
BRANCH  10  24
ATOM     24  O   UNL     1      -4.351   2.966  -0.530  1.00  0.00    -0.508 OA
ATOM     25  H   UNL     1      -3.855   3.743  -0.699  1.00  0.00    +0.293 HD
ENDBRANCH  10  24
TORSDOF 5
