MODEL 1
REMARK VINA RESULT:    -9.619      0.000      0.000
REMARK INTER + INTRA:         -11.635
REMARK INTER:                 -11.306
REMARK INTRA:                  -0.329
REMARK UNBOUND:                -0.329
REMARK SMILES O=c1cc(-c2ccc(O)c(O)c2)oc2cc(O)cc(O)c12
REMARK SMILES IDX 13 1 1 2 21 3 14 4 4 5 2 6 3 7 19 8 15 9 16 10 18 11 5 12
REMARK SMILES IDX 12 13 6 14 10 15 7 16 8 17 11 18 9 20 20 22 17 24
REMARK H PARENT 11 19 9 21 20 23 17 25
REMARK INDEX MAP 1 1 3 2 7 3 8 4 9 5 11 6 12 7 13 8 14 9 16 10 17 11 10 12
REMARK INDEX MAP 15 13 18 14 19 15 20 16 21 17 5 18 24 19 6 20 25 21 2 22
REMARK INDEX MAP 22 23 4 24 23 25
ROOT
ATOM      1  O   UNL     1      61.815  30.510 117.035  1.00  0.00    -0.456 OA
ATOM      2  O   UNL     1      63.480  27.068 118.405  1.00  0.00    -0.289 OA
ATOM      3  C   UNL     1      63.665  28.936 116.993  1.00  0.00    +0.107 A 
ATOM      4  C   UNL     1      63.039  30.106 116.565  1.00  0.00    +0.146 A 
ATOM      5  C   UNL     1      61.175  29.722 117.980  1.00  0.00    +0.138 A 
ATOM      6  C   UNL     1      62.978  28.105 117.988  1.00  0.00    +0.197 A 
ATOM      7  C   UNL     1      61.668  28.572 118.462  1.00  0.00    +0.100 A 
ATOM      8  C   UNL     1      64.915  28.581 116.475  1.00  0.00    +0.134 A 
ATOM      9  C   UNL     1      63.659  30.922 115.621  1.00  0.00    +0.094 A 
ATOM     10  C   UNL     1      64.904  30.558 115.112  1.00  0.00    +0.123 A 
ATOM     11  C   UNL     1      65.540  29.393 115.531  1.00  0.00    +0.093 A 
ENDROOT
BRANCH   5  12
ATOM     12  C   UNL     1      59.861  30.241 118.407  1.00  0.00    +0.021 A 
ATOM     13  C   UNL     1      59.402  31.471 117.913  1.00  0.00    +0.062 A 
ATOM     14  C   UNL     1      59.059  29.537 119.326  1.00  0.00    +0.016 A 
ATOM     15  C   UNL     1      58.169  31.962 118.322  1.00  0.00    +0.158 A 
ATOM     16  C   UNL     1      57.817  30.041 119.735  1.00  0.00    +0.051 A 
ATOM     17  C   UNL     1      57.379  31.255 119.224  1.00  0.00    +0.157 A 
BRANCH  15  18
ATOM     18  O   UNL     1      57.732  33.157 117.826  1.00  0.00    -0.504 OA
ATOM     19  H   UNL     1      58.003  33.439 116.975  1.00  0.00    +0.293 HD
ENDBRANCH  15  18
BRANCH  17  20
ATOM     20  O   UNL     1      56.178  31.800 119.582  1.00  0.00    -0.504 OA
ATOM     21  H   UNL     1      55.465  31.243 119.825  1.00  0.00    +0.293 HD
ENDBRANCH  17  20
ENDBRANCH   5  12
BRANCH   8  22
ATOM     22  O   UNL     1      65.583  27.448 116.853  1.00  0.00    -0.507 OA
ATOM     23  H   UNL     1      66.191  27.478 117.566  1.00  0.00    +0.293 HD
ENDBRANCH   8  22
BRANCH  10  24
ATOM     24  O   UNL     1      65.476  31.385 114.190  1.00  0.00    -0.508 OA
ATOM     25  H   UNL     1      65.098  32.224 114.014  1.00  0.00    +0.293 HD
ENDBRANCH  10  24
TORSDOF 5
ENDMDL
MODEL 2
REMARK VINA RESULT:    -9.420      1.908      1.989
REMARK INTER + INTRA:         -11.401
REMARK INTER:                 -11.099
REMARK INTRA:                  -0.302
REMARK UNBOUND:                -0.329
REMARK SMILES O=c1cc(-c2ccc(O)c(O)c2)oc2cc(O)cc(O)c12
REMARK SMILES IDX 13 1 1 2 21 3 14 4 4 5 2 6 3 7 19 8 15 9 16 10 18 11 5 12
REMARK SMILES IDX 12 13 6 14 10 15 7 16 8 17 11 18 9 20 20 22 17 24
REMARK H PARENT 11 19 9 21 20 23 17 25
REMARK INDEX MAP 1 1 3 2 7 3 8 4 9 5 11 6 12 7 13 8 14 9 16 10 17 11 10 12
REMARK INDEX MAP 15 13 18 14 19 15 20 16 21 17 5 18 24 19 6 20 25 21 2 22
REMARK INDEX MAP 22 23 4 24 23 25
ROOT
ATOM      1  O   UNL     1      63.039  30.617 118.323  1.00  0.00    -0.456 OA
ATOM      2  O   UNL     1      64.344  27.011 116.983  1.00  0.00    -0.289 OA
ATOM      3  C   UNL     1      64.892  29.195 117.654  1.00  0.00    +0.107 A 
ATOM      4  C   UNL     1      64.379  30.407 118.113  1.00  0.00    +0.146 A 
ATOM      5  C   UNL     1      62.158  29.576 118.072  1.00  0.00    +0.138 A 
ATOM      6  C   UNL     1      63.952  28.101 117.384  1.00  0.00    +0.197 A 
ATOM      7  C   UNL     1      62.527  28.369 117.619  1.00  0.00    +0.100 A 
ATOM      8  C   UNL     1      66.269  29.046 117.462  1.00  0.00    +0.134 A 
ATOM      9  C   UNL     1      65.239  31.471 118.381  1.00  0.00    +0.094 A 
ATOM     10  C   UNL     1      66.609  31.310 118.185  1.00  0.00    +0.123 A 
ATOM     11  C   UNL     1      67.134  30.105 117.728  1.00  0.00    +0.093 A 
ENDROOT
BRANCH   5  12
ATOM     12  C   UNL     1      60.742  29.911 118.318  1.00  0.00    +0.021 A 
ATOM     13  C   UNL     1      60.230  31.142 117.880  1.00  0.00    +0.062 A 
ATOM     14  C   UNL     1      59.889  29.030 119.010  1.00  0.00    +0.016 A 
ATOM     15  C   UNL     1      58.900  31.460 118.118  1.00  0.00    +0.158 A 
ATOM     16  C   UNL     1      58.549  29.360 119.247  1.00  0.00    +0.051 A 
ATOM     17  C   UNL     1      58.062  30.578 118.795  1.00  0.00    +0.157 A 
BRANCH  15  18
ATOM     18  O   UNL     1      58.414  32.659 117.679  1.00  0.00    -0.504 OA
ATOM     19  H   UNL     1      57.629  32.689 117.170  1.00  0.00    +0.293 HD
ENDBRANCH  15  18
BRANCH  17  20
ATOM     20  O   UNL     1      56.765  30.959 118.995  1.00  0.00    -0.504 OA
ATOM     21  H   UNL     1      56.156  30.362 119.385  1.00  0.00    +0.293 HD
ENDBRANCH  17  20
ENDBRANCH   5  12
BRANCH   8  22
ATOM     22  O   UNL     1      66.837  27.883 117.014  1.00  0.00    -0.507 OA
ATOM     23  H   UNL     1      67.253  27.857 116.175  1.00  0.00    +0.293 HD
ENDBRANCH   8  22
BRANCH  10  24
ATOM     24  O   UNL     1      67.415  32.376 118.459  1.00  0.00    -0.508 OA
ATOM     25  H   UNL     1      67.289  32.870 119.245  1.00  0.00    +0.293 HD
ENDBRANCH  10  24
TORSDOF 5
ENDMDL
MODEL 3
REMARK VINA RESULT:    -9.404      1.396      7.017
REMARK INTER + INTRA:         -11.382
REMARK INTER:                 -11.076
REMARK INTRA:                  -0.306
REMARK UNBOUND:                -0.329
REMARK SMILES O=c1cc(-c2ccc(O)c(O)c2)oc2cc(O)cc(O)c12
REMARK SMILES IDX 13 1 1 2 21 3 14 4 4 5 2 6 3 7 19 8 15 9 16 10 18 11 5 12
REMARK SMILES IDX 12 13 6 14 10 15 7 16 8 17 11 18 9 20 20 22 17 24
REMARK H PARENT 11 19 9 21 20 23 17 25
REMARK INDEX MAP 1 1 3 2 7 3 8 4 9 5 11 6 12 7 13 8 14 9 16 10 17 11 10 12
REMARK INDEX MAP 15 13 18 14 19 15 20 16 21 17 5 18 24 19 6 20 25 21 2 22
REMARK INDEX MAP 22 23 4 24 23 25
ROOT
ATOM      1  O   UNL     1      60.221  31.251 117.738  1.00  0.00    -0.456 OA
ATOM      2  O   UNL     1      58.128  28.607 120.002  1.00  0.00    -0.289 OA
ATOM      3  C   UNL     1      58.233  30.747 119.041  1.00  0.00    +0.107 A 
ATOM      4  C   UNL     1      59.001  31.606 118.256  1.00  0.00    +0.146 A 
ATOM      5  C   UNL     1      60.708  29.980 118.002  1.00  0.00    +0.138 A 
ATOM      6  C   UNL     1      58.760  29.407 119.322  1.00  0.00    +0.197 A 
ATOM      7  C   UNL     1      60.070  29.068 118.751  1.00  0.00    +0.100 A 
ATOM      8  C   UNL     1      56.996  31.171 119.538  1.00  0.00    +0.134 A 
ATOM      9  C   UNL     1      58.536  32.888 117.967  1.00  0.00    +0.094 A 
ATOM     10  C   UNL     1      57.303  33.299 118.468  1.00  0.00    +0.123 A 
ATOM     11  C   UNL     1      56.526  32.451 119.252  1.00  0.00    +0.093 A 
ENDROOT
BRANCH   5  12
ATOM     12  C   UNL     1      62.031  29.706 117.409  1.00  0.00    +0.021 A 
ATOM     13  C   UNL     1      62.622  28.445 117.576  1.00  0.00    +0.062 A 
ATOM     14  C   UNL     1      62.734  30.695 116.694  1.00  0.00    +0.016 A 
ATOM     15  C   UNL     1      63.871  28.189 117.025  1.00  0.00    +0.158 A 
ATOM     16  C   UNL     1      63.994  30.429 116.143  1.00  0.00    +0.051 A 
ATOM     17  C   UNL     1      64.554  29.170 116.312  1.00  0.00    +0.157 A 
BRANCH  15  18
ATOM     18  O   UNL     1      64.430  26.954 117.189  1.00  0.00    -0.504 OA
ATOM     19  H   UNL     1      65.205  26.855 117.705  1.00  0.00    +0.293 HD
ENDBRANCH  15  18
BRANCH  17  20
ATOM     20  O   UNL     1      65.779  28.848 115.799  1.00  0.00    -0.504 OA
ATOM     21  H   UNL     1      66.533  29.351 116.035  1.00  0.00    +0.293 HD
ENDBRANCH  17  20
ENDBRANCH   5  12
BRANCH   8  22
ATOM     22  O   UNL     1      56.193  30.378 120.313  1.00  0.00    -0.507 OA
ATOM     23  H   UNL     1      55.710  30.752 121.023  1.00  0.00    +0.293 HD
ENDBRANCH   8  22
BRANCH  10  24
ATOM     24  O   UNL     1      56.885  34.561 118.162  1.00  0.00    -0.508 OA
ATOM     25  H   UNL     1      56.733  35.183 118.845  1.00  0.00    +0.293 HD
ENDBRANCH  10  24
TORSDOF 5
ENDMDL
MODEL 4
REMARK VINA RESULT:    -8.651      3.021      5.332
REMARK INTER + INTRA:         -10.498
REMARK INTER:                 -10.225
REMARK INTRA:                  -0.273
REMARK UNBOUND:                -0.329
REMARK SMILES O=c1cc(-c2ccc(O)c(O)c2)oc2cc(O)cc(O)c12
REMARK SMILES IDX 13 1 1 2 21 3 14 4 4 5 2 6 3 7 19 8 15 9 16 10 18 11 5 12
REMARK SMILES IDX 12 13 6 14 10 15 7 16 8 17 11 18 9 20 20 22 17 24
REMARK H PARENT 11 19 9 21 20 23 17 25
REMARK INDEX MAP 1 1 3 2 7 3 8 4 9 5 11 6 12 7 13 8 14 9 16 10 17 11 10 12
REMARK INDEX MAP 15 13 18 14 19 15 20 16 21 17 5 18 24 19 6 20 25 21 2 22
REMARK INDEX MAP 22 23 4 24 23 25
ROOT
ATOM      1  O   UNL     1      64.763  28.651 114.022  1.00  0.00    -0.456 OA
ATOM      2  O   UNL     1      67.992  31.114 114.127  1.00  0.00    -0.289 OA
ATOM      3  C   UNL     1      66.815  29.434 112.982  1.00  0.00    +0.107 A 
ATOM      4  C   UNL     1      65.686  28.617 113.006  1.00  0.00    +0.146 A 
ATOM      5  C   UNL     1      64.960  29.541 115.066  1.00  0.00    +0.138 A 
ATOM      6  C   UNL     1      67.020  30.367 114.096  1.00  0.00    +0.197 A 
ATOM      7  C   UNL     1      66.010  30.370 115.163  1.00  0.00    +0.100 A 
ATOM      8  C   UNL     1      67.717  29.350 111.917  1.00  0.00    +0.134 A 
ATOM      9  C   UNL     1      65.455  27.716 111.968  1.00  0.00    +0.094 A 
ATOM     10  C   UNL     1      66.360  27.642 110.912  1.00  0.00    +0.123 A 
ATOM     11  C   UNL     1      67.492  28.452 110.875  1.00  0.00    +0.093 A 
ENDROOT
BRANCH   5  12
ATOM     12  C   UNL     1      63.918  29.488 116.110  1.00  0.00    +0.021 A 
ATOM     13  C   UNL     1      62.999  30.541 116.232  1.00  0.00    +0.062 A 
ATOM     14  C   UNL     1      63.836  28.409 117.011  1.00  0.00    +0.016 A 
ATOM     15  C   UNL     1      62.023  30.494 117.219  1.00  0.00    +0.158 A 
ATOM     16  C   UNL     1      62.850  28.371 118.004  1.00  0.00    +0.051 A 
ATOM     17  C   UNL     1      61.945  29.419 118.099  1.00  0.00    +0.157 A 
BRANCH  15  18
ATOM     18  O   UNL     1      61.131  31.524 117.320  1.00  0.00    -0.504 OA
ATOM     19  H   UNL     1      61.434  32.390 117.503  1.00  0.00    +0.293 HD
ENDBRANCH  15  18
BRANCH  17  20
ATOM     20  O   UNL     1      60.960  29.442 119.046  1.00  0.00    -0.504 OA
ATOM     21  H   UNL     1      60.362  28.723 119.117  1.00  0.00    +0.293 HD
ENDBRANCH  17  20
ENDBRANCH   5  12
BRANCH   8  22
ATOM     22  O   UNL     1      68.843  30.124 111.832  1.00  0.00    -0.507 OA
ATOM     23  H   UNL     1      69.634  29.848 112.253  1.00  0.00    +0.293 HD
ENDBRANCH   8  22
BRANCH  10  24
ATOM     24  O   UNL     1      66.098  26.747 109.916  1.00  0.00    -0.508 OA
ATOM     25  H   UNL     1      65.274  26.301 109.892  1.00  0.00    +0.293 HD
ENDBRANCH  10  24
TORSDOF 5
ENDMDL
MODEL 5
REMARK VINA RESULT:    -8.598      2.548      3.272
REMARK INTER + INTRA:         -10.435
REMARK INTER:                 -10.167
REMARK INTRA:                  -0.268
REMARK UNBOUND:                -0.329
REMARK SMILES O=c1cc(-c2ccc(O)c(O)c2)oc2cc(O)cc(O)c12
REMARK SMILES IDX 13 1 1 2 21 3 14 4 4 5 2 6 3 7 19 8 15 9 16 10 18 11 5 12
REMARK SMILES IDX 12 13 6 14 10 15 7 16 8 17 11 18 9 20 20 22 17 24
REMARK H PARENT 11 19 9 21 20 23 17 25
REMARK INDEX MAP 1 1 3 2 7 3 8 4 9 5 11 6 12 7 13 8 14 9 16 10 17 11 10 12
REMARK INDEX MAP 15 13 18 14 19 15 20 16 21 17 5 18 24 19 6 20 25 21 2 22
REMARK INDEX MAP 22 23 4 24 23 25
ROOT
ATOM      1  O   UNL     1      63.669  30.665 118.489  1.00  0.00    -0.456 OA
ATOM      2  O   UNL     1      65.185  29.969 114.786  1.00  0.00    -0.289 OA
ATOM      3  C   UNL     1      65.578  30.691 116.986  1.00  0.00    +0.107 A 
ATOM      4  C   UNL     1      64.995  30.907 118.234  1.00  0.00    +0.146 A 
ATOM      5  C   UNL     1      62.875  30.179 117.462  1.00  0.00    +0.138 A 
ATOM      6  C   UNL     1      64.729  30.183 115.903  1.00  0.00    +0.197 A 
ATOM      7  C   UNL     1      63.314  29.940 116.217  1.00  0.00    +0.100 A 
ATOM      8  C   UNL     1      66.937  30.957 116.793  1.00  0.00    +0.134 A 
ATOM      9  C   UNL     1      65.768  31.390 119.289  1.00  0.00    +0.094 A 
ATOM     10  C   UNL     1      67.120  31.652 119.085  1.00  0.00    +0.123 A 
ATOM     11  C   UNL     1      67.714  31.439 117.844  1.00  0.00    +0.093 A 
ENDROOT
BRANCH   5  12
ATOM     12  C   UNL     1      61.464  29.966 117.838  1.00  0.00    +0.021 A 
ATOM     13  C   UNL     1      60.526  30.990 117.640  1.00  0.00    +0.062 A 
ATOM     14  C   UNL     1      61.035  28.757 118.420  1.00  0.00    +0.016 A 
ATOM     15  C   UNL     1      59.200  30.792 118.002  1.00  0.00    +0.158 A 
ATOM     16  C   UNL     1      59.696  28.566 118.784  1.00  0.00    +0.051 A 
ATOM     17  C   UNL     1      58.784  29.590 118.568  1.00  0.00    +0.157 A 
BRANCH  15  18
ATOM     18  O   UNL     1      58.298  31.796 117.796  1.00  0.00    -0.504 OA
ATOM     19  H   UNL     1      58.002  32.316 118.516  1.00  0.00    +0.293 HD
ENDBRANCH  15  18
BRANCH  17  20
ATOM     20  O   UNL     1      57.464  29.467 118.901  1.00  0.00    -0.504 OA
ATOM     21  H   UNL     1      56.941  30.233 119.035  1.00  0.00    +0.293 HD
ENDBRANCH  17  20
ENDBRANCH   5  12
BRANCH   8  22
ATOM     22  O   UNL     1      67.570  30.765 115.594  1.00  0.00    -0.507 OA
ATOM     23  H   UNL     1      68.232  31.366 115.313  1.00  0.00    +0.293 HD
ENDBRANCH   8  22
BRANCH  10  24
ATOM     24  O   UNL     1      67.840  32.123 120.143  1.00  0.00    -0.508 OA
ATOM     25  H   UNL     1      68.626  32.611 119.995  1.00  0.00    +0.293 HD
ENDBRANCH  10  24
TORSDOF 5
ENDMDL
MODEL 6
REMARK VINA RESULT:    -8.430      2.280      3.055
REMARK INTER + INTRA:         -10.238
REMARK INTER:                  -9.960
REMARK INTRA:                  -0.278
REMARK UNBOUND:                -0.329
REMARK SMILES O=c1cc(-c2ccc(O)c(O)c2)oc2cc(O)cc(O)c12
REMARK SMILES IDX 13 1 1 2 21 3 14 4 4 5 2 6 3 7 19 8 15 9 16 10 18 11 5 12
REMARK SMILES IDX 12 13 6 14 10 15 7 16 8 17 11 18 9 20 20 22 17 24
REMARK H PARENT 11 19 9 21 20 23 17 25
REMARK INDEX MAP 1 1 3 2 7 3 8 4 9 5 11 6 12 7 13 8 14 9 16 10 17 11 10 12
REMARK INDEX MAP 15 13 18 14 19 15 20 16 21 17 5 18 24 19 6 20 25 21 2 22
REMARK INDEX MAP 22 23 4 24 23 25
ROOT
ATOM      1  O   UNL     1      63.908  30.247 116.160  1.00  0.00    -0.456 OA
ATOM      2  O   UNL     1      66.692  31.064 119.003  1.00  0.00    -0.289 OA
ATOM      3  C   UNL     1      66.214  30.767 116.722  1.00  0.00    +0.107 A 
ATOM      4  C   UNL     1      65.210  30.482 115.798  1.00  0.00    +0.146 A 
ATOM      5  C   UNL     1      63.575  30.300 117.505  1.00  0.00    +0.138 A 
ATOM      6  C   UNL     1      65.854  30.814 118.144  1.00  0.00    +0.197 A 
ATOM      7  C   UNL     1      64.449  30.554 118.489  1.00  0.00    +0.100 A 
ATOM      8  C   UNL     1      67.523  30.997 116.287  1.00  0.00    +0.134 A 
ATOM      9  C   UNL     1      65.512  30.427 114.438  1.00  0.00    +0.094 A 
ATOM     10  C   UNL     1      66.819  30.658 114.016  1.00  0.00    +0.123 A 
ATOM     11  C   UNL     1      67.830  30.944 114.929  1.00  0.00    +0.093 A 
ENDROOT
BRANCH   5  12
ATOM     12  C   UNL     1      62.153  30.021 117.786  1.00  0.00    +0.021 A 
ATOM     13  C   UNL     1      61.174  30.960 117.429  1.00  0.00    +0.062 A 
ATOM     14  C   UNL     1      61.752  28.836 118.431  1.00  0.00    +0.016 A 
ATOM     15  C   UNL     1      59.837  30.701 117.701  1.00  0.00    +0.158 A 
ATOM     16  C   UNL     1      60.402  28.583 118.703  1.00  0.00    +0.051 A 
ATOM     17  C   UNL     1      59.450  29.522 118.332  1.00  0.00    +0.157 A 
BRANCH  15  18
ATOM     18  O   UNL     1      58.895  31.621 117.341  1.00  0.00    -0.504 OA
ATOM     19  H   UNL     1      58.226  31.869 117.947  1.00  0.00    +0.293 HD
ENDBRANCH  15  18
BRANCH  17  20
ATOM     20  O   UNL     1      58.117  29.335 118.568  1.00  0.00    -0.504 OA
ATOM     21  H   UNL     1      57.501  30.001 118.333  1.00  0.00    +0.293 HD
ENDBRANCH  17  20
ENDBRANCH   5  12
BRANCH   8  22
ATOM     22  O   UNL     1      68.553  31.283 117.142  1.00  0.00    -0.507 OA
ATOM     23  H   UNL     1      68.494  31.038 118.045  1.00  0.00    +0.293 HD
ENDBRANCH   8  22
BRANCH  10  24
ATOM     24  O   UNL     1      67.071  30.595 112.677  1.00  0.00    -0.508 OA
ATOM     25  H   UNL     1      67.786  31.080 112.311  1.00  0.00    +0.293 HD
ENDBRANCH  10  24
TORSDOF 5
ENDMDL
MODEL 7
REMARK VINA RESULT:    -8.418      3.477      4.228
REMARK INTER + INTRA:         -10.223
REMARK INTER:                  -9.954
REMARK INTRA:                  -0.269
REMARK UNBOUND:                -0.329
REMARK SMILES O=c1cc(-c2ccc(O)c(O)c2)oc2cc(O)cc(O)c12
REMARK SMILES IDX 13 1 1 2 21 3 14 4 4 5 2 6 3 7 19 8 15 9 16 10 18 11 5 12
REMARK SMILES IDX 12 13 6 14 10 15 7 16 8 17 11 18 9 20 20 22 17 24
REMARK H PARENT 11 19 9 21 20 23 17 25
REMARK INDEX MAP 1 1 3 2 7 3 8 4 9 5 11 6 12 7 13 8 14 9 16 10 17 11 10 12
REMARK INDEX MAP 15 13 18 14 19 15 20 16 21 17 5 18 24 19 6 20 25 21 2 22
REMARK INDEX MAP 22 23 4 24 23 25
ROOT
ATOM      1  O   UNL     1      64.493  31.192 118.826  1.00  0.00    -0.456 OA
ATOM      2  O   UNL     1      66.783  30.245 115.607  1.00  0.00    -0.289 OA
ATOM      3  C   UNL     1      66.652  31.276 117.714  1.00  0.00    +0.107 A 
ATOM      4  C   UNL     1      65.813  31.568 118.788  1.00  0.00    +0.146 A 
ATOM      5  C   UNL     1      63.974  30.487 117.752  1.00  0.00    +0.138 A 
ATOM      6  C   UNL     1      66.092  30.535 116.578  1.00  0.00    +0.197 A 
ATOM      7  C   UNL     1      64.676  30.154 116.658  1.00  0.00    +0.100 A 
ATOM      8  C   UNL     1      67.988  31.687 117.738  1.00  0.00    +0.134 A 
ATOM      9  C   UNL     1      66.306  32.271 119.886  1.00  0.00    +0.094 A 
ATOM     10  C   UNL     1      67.638  32.675 119.899  1.00  0.00    +0.123 A 
ATOM     11  C   UNL     1      68.487  32.389 118.833  1.00  0.00    +0.093 A 
ENDROOT
BRANCH   5  12
ATOM     12  C   UNL     1      62.545  30.143 117.889  1.00  0.00    +0.021 A 
ATOM     13  C   UNL     1      61.566  31.033 117.422  1.00  0.00    +0.062 A 
ATOM     14  C   UNL     1      62.135  28.945 118.503  1.00  0.00    +0.016 A 
ATOM     15  C   UNL     1      60.222  30.713 117.559  1.00  0.00    +0.158 A 
ATOM     16  C   UNL     1      60.776  28.631 118.638  1.00  0.00    +0.051 A 
ATOM     17  C   UNL     1      59.826  29.522 118.160  1.00  0.00    +0.157 A 
BRANCH  15  18
ATOM     18  O   UNL     1      59.280  31.586 117.093  1.00  0.00    -0.504 OA
ATOM     19  H   UNL     1      58.524  31.780 117.610  1.00  0.00    +0.293 HD
ENDBRANCH  15  18
BRANCH  17  20
ATOM     20  O   UNL     1      58.486  29.274 118.261  1.00  0.00    -0.504 OA
ATOM     21  H   UNL     1      57.873  29.829 117.819  1.00  0.00    +0.293 HD
ENDBRANCH  17  20
ENDBRANCH   5  12
BRANCH   8  22
ATOM     22  O   UNL     1      68.865  31.432 116.717  1.00  0.00    -0.507 OA
ATOM     23  H   UNL     1      69.591  30.857 116.857  1.00  0.00    +0.293 HD
ENDBRANCH   8  22
BRANCH  10  24
ATOM     24  O   UNL     1      68.081  33.360 120.992  1.00  0.00    -0.508 OA
ATOM     25  H   UNL     1      67.522  33.466 121.737  1.00  0.00    +0.293 HD
ENDBRANCH  10  24
TORSDOF 5
ENDMDL
MODEL 8
REMARK VINA RESULT:    -8.150      2.738      4.240
REMARK INTER + INTRA:          -9.908
REMARK INTER:                  -9.640
REMARK INTRA:                  -0.268
REMARK UNBOUND:                -0.329
REMARK SMILES O=c1cc(-c2ccc(O)c(O)c2)oc2cc(O)cc(O)c12
REMARK SMILES IDX 13 1 1 2 21 3 14 4 4 5 2 6 3 7 19 8 15 9 16 10 18 11 5 12
REMARK SMILES IDX 12 13 6 14 10 15 7 16 8 17 11 18 9 20 20 22 17 24
REMARK H PARENT 11 19 9 21 20 23 17 25
REMARK INDEX MAP 1 1 3 2 7 3 8 4 9 5 11 6 12 7 13 8 14 9 16 10 17 11 10 12
REMARK INDEX MAP 15 13 18 14 19 15 20 16 21 17 5 18 24 19 6 20 25 21 2 22
REMARK INDEX MAP 22 23 4 24 23 25
ROOT
ATOM      1  O   UNL     1      65.109  30.639 117.562  1.00  0.00    -0.456 OA
ATOM      2  O   UNL     1      66.084  30.522 113.621  1.00  0.00    -0.289 OA
ATOM      3  C   UNL     1      66.775  30.959 115.823  1.00  0.00    +0.107 A 
ATOM      4  C   UNL     1      66.376  30.977 117.158  1.00  0.00    +0.146 A 
ATOM      5  C   UNL     1      64.187  30.258 116.600  1.00  0.00    +0.138 A 
ATOM      6  C   UNL     1      65.790  30.561 114.810  1.00  0.00    +0.197 A 
ATOM      7  C   UNL     1      64.445  30.210 115.284  1.00  0.00    +0.100 A 
ATOM      8  C   UNL     1      68.083  31.314 115.477  1.00  0.00    +0.134 A 
ATOM      9  C   UNL     1      67.282  31.350 118.150  1.00  0.00    +0.094 A 
ATOM     10  C   UNL     1      68.582  31.702 117.795  1.00  0.00    +0.123 A 
ATOM     11  C   UNL     1      68.993  31.687 116.465  1.00  0.00    +0.093 A 
ENDROOT
BRANCH   5  12
ATOM     12  C   UNL     1      62.853  29.928 117.139  1.00  0.00    +0.021 A 
ATOM     13  C   UNL     1      61.859  30.915 117.194  1.00  0.00    +0.062 A 
ATOM     14  C   UNL     1      62.558  28.640 117.627  1.00  0.00    +0.016 A 
ATOM     15  C   UNL     1      60.607  30.607 117.709  1.00  0.00    +0.158 A 
ATOM     16  C   UNL     1      61.293  28.338 118.147  1.00  0.00    +0.051 A 
ATOM     17  C   UNL     1      60.322  29.329 118.181  1.00  0.00    +0.157 A 
BRANCH  15  18
ATOM     18  O   UNL     1      59.647  31.577 117.749  1.00  0.00    -0.504 OA
ATOM     19  H   UNL     1      59.058  31.685 117.028  1.00  0.00    +0.293 HD
ENDBRANCH  15  18
BRANCH  17  20
ATOM     20  O   UNL     1      59.068  29.097 118.675  1.00  0.00    -0.504 OA
ATOM     21  H   UNL     1      58.963  28.718 119.525  1.00  0.00    +0.293 HD
ENDBRANCH  17  20
ENDBRANCH   5  12
BRANCH   8  22
ATOM     22  O   UNL     1      68.538  31.316 114.186  1.00  0.00    -0.507 OA
ATOM     23  H   UNL     1      67.930  31.362 113.475  1.00  0.00    +0.293 HD
ENDBRANCH   8  22
BRANCH  10  24
ATOM     24  O   UNL     1      69.436  32.060 118.796  1.00  0.00    -0.508 OA
ATOM     25  H   UNL     1      70.161  31.508 119.014  1.00  0.00    +0.293 HD
ENDBRANCH  10  24
TORSDOF 5
ENDMDL
MODEL 9
REMARK VINA RESULT:    -7.598      3.161      5.849
REMARK INTER + INTRA:          -9.259
REMARK INTER:                  -8.980
REMARK INTRA:                  -0.279
REMARK UNBOUND:                -0.329
REMARK SMILES O=c1cc(-c2ccc(O)c(O)c2)oc2cc(O)cc(O)c12
REMARK SMILES IDX 13 1 1 2 21 3 14 4 4 5 2 6 3 7 19 8 15 9 16 10 18 11 5 12
REMARK SMILES IDX 12 13 6 14 10 15 7 16 8 17 11 18 9 20 20 22 17 24
REMARK H PARENT 11 19 9 21 20 23 17 25
REMARK INDEX MAP 1 1 3 2 7 3 8 4 9 5 11 6 12 7 13 8 14 9 16 10 17 11 10 12
REMARK INDEX MAP 15 13 18 14 19 15 20 16 21 17 5 18 24 19 6 20 25 21 2 22
REMARK INDEX MAP 22 23 4 24 23 25
ROOT
ATOM      1  O   UNL     1      64.941  28.836 113.804  1.00  0.00    -0.456 OA
ATOM      2  O   UNL     1      68.236  31.211 113.744  1.00  0.00    -0.289 OA
ATOM      3  C   UNL     1      66.999  29.509 112.701  1.00  0.00    +0.107 A 
ATOM      4  C   UNL     1      65.848  28.726 112.781  1.00  0.00    +0.146 A 
ATOM      5  C   UNL     1      65.177  29.771 114.800  1.00  0.00    +0.138 A 
ATOM      6  C   UNL     1      67.244  30.491 113.763  1.00  0.00    +0.197 A 
ATOM      7  C   UNL     1      66.250  30.575 114.841  1.00  0.00    +0.100 A 
ATOM      8  C   UNL     1      67.883  29.347 111.629  1.00  0.00    +0.134 A 
ATOM      9  C   UNL     1      65.580  27.780 111.792  1.00  0.00    +0.094 A 
ATOM     10  C   UNL     1      66.467  27.628 110.730  1.00  0.00    +0.123 A 
ATOM     11  C   UNL     1      67.619  28.404 110.638  1.00  0.00    +0.093 A 
ENDROOT
BRANCH   5  12
ATOM     12  C   UNL     1      64.149  29.799 115.858  1.00  0.00    +0.021 A 
ATOM     13  C   UNL     1      64.018  28.711 116.733  1.00  0.00    +0.062 A 
ATOM     14  C   UNL     1      63.269  30.890 115.997  1.00  0.00    +0.016 A 
ATOM     15  C   UNL     1      63.045  28.734 117.724  1.00  0.00    +0.158 A 
ATOM     16  C   UNL     1      62.289  30.904 116.998  1.00  0.00    +0.051 A 
ATOM     17  C   UNL     1      62.186  29.821 117.859  1.00  0.00    +0.157 A 
BRANCH  15  18
ATOM     18  O   UNL     1      62.936  27.670 118.573  1.00  0.00    -0.504 OA
ATOM     19  H   UNL     1      62.482  26.897 118.301  1.00  0.00    +0.293 HD
ENDBRANCH  15  18
BRANCH  17  20
ATOM     20  O   UNL     1      61.252  29.774 118.855  1.00  0.00    -0.504 OA
ATOM     21  H   UNL     1      60.945  28.946 119.170  1.00  0.00    +0.293 HD
ENDBRANCH  17  20
ENDBRANCH   5  12
BRANCH   8  22
ATOM     22  O   UNL     1      69.028  30.084 111.491  1.00  0.00    -0.507 OA
ATOM     23  H   UNL     1      69.753  29.935 112.065  1.00  0.00    +0.293 HD
ENDBRANCH   8  22
BRANCH  10  24
ATOM     24  O   UNL     1      66.167  26.692 109.784  1.00  0.00    -0.508 OA
ATOM     25  H   UNL     1      65.580  25.991 109.988  1.00  0.00    +0.293 HD
ENDBRANCH  10  24
TORSDOF 5
ENDMDL
MODEL 10
REMARK VINA RESULT:    -7.380      2.648      4.725
REMARK INTER + INTRA:          -9.003
REMARK INTER:                  -8.722
REMARK INTRA:                  -0.281
REMARK UNBOUND:                -0.329
REMARK SMILES O=c1cc(-c2ccc(O)c(O)c2)oc2cc(O)cc(O)c12
REMARK SMILES IDX 13 1 1 2 21 3 14 4 4 5 2 6 3 7 19 8 15 9 16 10 18 11 5 12
REMARK SMILES IDX 12 13 6 14 10 15 7 16 8 17 11 18 9 20 20 22 17 24
REMARK H PARENT 11 19 9 21 20 23 17 25
REMARK INDEX MAP 1 1 3 2 7 3 8 4 9 5 11 6 12 7 13 8 14 9 16 10 17 11 10 12
REMARK INDEX MAP 15 13 18 14 19 15 20 16 21 17 5 18 24 19 6 20 25 21 2 22
REMARK INDEX MAP 22 23 4 24 23 25
ROOT
ATOM      1  O   UNL     1      65.677  30.598 115.655  1.00  0.00    -0.456 OA
ATOM      2  O   UNL     1      66.183  27.977 112.593  1.00  0.00    -0.289 OA
ATOM      3  C   UNL     1      66.974  29.873 113.732  1.00  0.00    +0.107 A 
ATOM      4  C   UNL     1      66.743  30.737 114.802  1.00  0.00    +0.146 A 
ATOM      5  C   UNL     1      64.794  29.550 115.446  1.00  0.00    +0.138 A 
ATOM      6  C   UNL     1      66.030  28.771 113.514  1.00  0.00    +0.197 A 
ATOM      7  C   UNL     1      64.901  28.660 114.449  1.00  0.00    +0.100 A 
ATOM      8  C   UNL     1      68.080  30.069 112.900  1.00  0.00    +0.134 A 
ATOM      9  C   UNL     1      67.616  31.797 115.042  1.00  0.00    +0.094 A 
ATOM     10  C   UNL     1      68.714  31.983 114.206  1.00  0.00    +0.123 A 
ATOM     11  C   UNL     1      68.956  31.127 113.135  1.00  0.00    +0.093 A 
ENDROOT
BRANCH   5  12
ATOM     12  C   UNL     1      63.678  29.499 116.411  1.00  0.00    +0.021 A 
ATOM     13  C   UNL     1      62.754  30.553 116.465  1.00  0.00    +0.062 A 
ATOM     14  C   UNL     1      63.530  28.422 117.306  1.00  0.00    +0.016 A 
ATOM     15  C   UNL     1      61.709  30.510 117.378  1.00  0.00    +0.158 A 
ATOM     16  C   UNL     1      62.474  28.387 118.225  1.00  0.00    +0.051 A 
ATOM     17  C   UNL     1      61.566  29.436 118.252  1.00  0.00    +0.157 A 
BRANCH  15  18
ATOM     18  O   UNL     1      60.813  31.540 117.413  1.00  0.00    -0.504 OA
ATOM     19  H   UNL     1      60.135  31.594 116.769  1.00  0.00    +0.293 HD
ENDBRANCH  15  18
BRANCH  17  20
ATOM     20  O   UNL     1      60.514  29.461 119.125  1.00  0.00    -0.504 OA
ATOM     21  H   UNL     1      60.244  30.272 119.508  1.00  0.00    +0.293 HD
ENDBRANCH  17  20
ENDBRANCH   5  12
BRANCH   8  22
ATOM     22  O   UNL     1      68.364  29.258 111.834  1.00  0.00    -0.507 OA
ATOM     23  H   UNL     1      67.681  28.761 111.429  1.00  0.00    +0.293 HD
ENDBRANCH   8  22
BRANCH  10  24
ATOM     24  O   UNL     1      69.543  33.031 114.476  1.00  0.00    -0.508 OA
ATOM     25  H   UNL     1      70.245  33.238 113.889  1.00  0.00    +0.293 HD
ENDBRANCH  10  24
TORSDOF 5
ENDMDL
MODEL 11
REMARK VINA RESULT:    -7.339      2.470      7.739
REMARK INTER + INTRA:          -8.955
REMARK INTER:                  -8.681
REMARK INTRA:                  -0.274
REMARK UNBOUND:                -0.329
REMARK SMILES O=c1cc(-c2ccc(O)c(O)c2)oc2cc(O)cc(O)c12
REMARK SMILES IDX 13 1 1 2 21 3 14 4 4 5 2 6 3 7 19 8 15 9 16 10 18 11 5 12
REMARK SMILES IDX 12 13 6 14 10 15 7 16 8 17 11 18 9 20 20 22 17 24
REMARK H PARENT 11 19 9 21 20 23 17 25
REMARK INDEX MAP 1 1 3 2 7 3 8 4 9 5 11 6 12 7 13 8 14 9 16 10 17 11 10 12
REMARK INDEX MAP 15 13 18 14 19 15 20 16 21 17 5 18 24 19 6 20 25 21 2 22
REMARK INDEX MAP 22 23 4 24 23 25
ROOT
ATOM      1  O   UNL     1      64.406  30.644 115.297  1.00  0.00    -0.456 OA
ATOM      2  O   UNL     1      65.020  27.169 117.308  1.00  0.00    -0.289 OA
ATOM      3  C   UNL     1      63.663  29.058 116.980  1.00  0.00    +0.107 A 
ATOM      4  C   UNL     1      63.511  30.237 116.254  1.00  0.00    +0.146 A 
ATOM      5  C   UNL     1      65.507  29.843 115.038  1.00  0.00    +0.138 A 
ATOM      6  C   UNL     1      64.835  28.219 116.705  1.00  0.00    +0.197 A 
ATOM      7  C   UNL     1      65.770  28.692 115.675  1.00  0.00    +0.100 A 
ATOM      8  C   UNL     1      62.713  28.700 117.943  1.00  0.00    +0.134 A 
ATOM      9  C   UNL     1      62.411  31.062 116.487  1.00  0.00    +0.094 A 
ATOM     10  C   UNL     1      61.471  30.696 117.448  1.00  0.00    +0.123 A 
ATOM     11  C   UNL     1      61.611  29.520 118.179  1.00  0.00    +0.093 A 
ENDROOT
BRANCH   5  12
ATOM     12  C   UNL     1      66.412  30.377 114.001  1.00  0.00    +0.021 A 
ATOM     13  C   UNL     1      66.636  29.645 112.826  1.00  0.00    +0.062 A 
ATOM     14  C   UNL     1      67.082  31.604 114.174  1.00  0.00    +0.016 A 
ATOM     15  C   UNL     1      67.493  30.144 111.854  1.00  0.00    +0.158 A 
ATOM     16  C   UNL     1      67.947  32.099 113.189  1.00  0.00    +0.051 A 
ATOM     17  C   UNL     1      68.144  31.362 112.030  1.00  0.00    +0.157 A 
BRANCH  15  18
ATOM     18  O   UNL     1      67.696  29.423 110.712  1.00  0.00    -0.504 OA
ATOM     19  H   UNL     1      67.408  28.533 110.663  1.00  0.00    +0.293 HD
ENDBRANCH  15  18
BRANCH  17  20
ATOM     20  O   UNL     1      68.974  31.790 111.033  1.00  0.00    -0.504 OA
ATOM     21  H   UNL     1      69.867  31.505 111.011  1.00  0.00    +0.293 HD
ENDBRANCH  17  20
ENDBRANCH   5  12
BRANCH   8  22
ATOM     22  O   UNL     1      62.802  27.556 118.689  1.00  0.00    -0.507 OA
ATOM     23  H   UNL     1      63.527  26.975 118.570  1.00  0.00    +0.293 HD
ENDBRANCH   8  22
BRANCH  10  24
ATOM     24  O   UNL     1      60.410  31.530 117.644  1.00  0.00    -0.508 OA
ATOM     25  H   UNL     1      59.782  31.340 118.313  1.00  0.00    +0.293 HD
ENDBRANCH  10  24
TORSDOF 5
ENDMDL
MODEL 12
REMARK VINA RESULT:    -7.332      4.698      6.739
REMARK INTER + INTRA:          -8.947
REMARK INTER:                  -8.670
REMARK INTRA:                  -0.278
REMARK UNBOUND:                -0.329
REMARK SMILES O=c1cc(-c2ccc(O)c(O)c2)oc2cc(O)cc(O)c12
REMARK SMILES IDX 13 1 1 2 21 3 14 4 4 5 2 6 3 7 19 8 15 9 16 10 18 11 5 12
REMARK SMILES IDX 12 13 6 14 10 15 7 16 8 17 11 18 9 20 20 22 17 24
REMARK H PARENT 11 19 9 21 20 23 17 25
REMARK INDEX MAP 1 1 3 2 7 3 8 4 9 5 11 6 12 7 13 8 14 9 16 10 17 11 10 12
REMARK INDEX MAP 15 13 18 14 19 15 20 16 21 17 5 18 24 19 6 20 25 21 2 22
REMARK INDEX MAP 22 23 4 24 23 25
ROOT
ATOM      1  O   UNL     1      64.520  31.268 119.027  1.00  0.00    -0.456 OA
ATOM      2  O   UNL     1      67.005  28.633 117.187  1.00  0.00    -0.289 OA
ATOM      3  C   UNL     1      64.809  29.180 117.818  1.00  0.00    +0.107 A 
ATOM      4  C   UNL     1      64.012  30.125 118.463  1.00  0.00    +0.146 A 
ATOM      5  C   UNL     1      65.886  31.496 118.947  1.00  0.00    +0.138 A 
ATOM      6  C   UNL     1      66.254  29.425 117.745  1.00  0.00    +0.197 A 
ATOM      7  C   UNL     1      66.757  30.660 118.363  1.00  0.00    +0.100 A 
ATOM      8  C   UNL     1      64.228  28.035 117.263  1.00  0.00    +0.134 A 
ATOM      9  C   UNL     1      62.635  29.927 118.555  1.00  0.00    +0.094 A 
ATOM     10  C   UNL     1      62.068  28.784 117.999  1.00  0.00    +0.123 A 
ATOM     11  C   UNL     1      62.853  27.833 117.352  1.00  0.00    +0.093 A 
ENDROOT
BRANCH   5  12
ATOM     12  C   UNL     1      66.328  32.745 119.595  1.00  0.00    +0.021 A 
ATOM     13  C   UNL     1      66.288  32.859 120.993  1.00  0.00    +0.062 A 
ATOM     14  C   UNL     1      66.770  33.847 118.838  1.00  0.00    +0.016 A 
ATOM     15  C   UNL     1      66.697  34.038 121.602  1.00  0.00    +0.158 A 
ATOM     16  C   UNL     1      67.179  35.034 119.461  1.00  0.00    +0.051 A 
ATOM     17  C   UNL     1      67.141  35.119 120.845  1.00  0.00    +0.157 A 
BRANCH  15  18
ATOM     18  O   UNL     1      66.659  34.130 122.964  1.00  0.00    -0.504 OA
ATOM     19  H   UNL     1      66.412  33.387 123.478  1.00  0.00    +0.293 HD
ENDBRANCH  15  18
BRANCH  17  20
ATOM     20  O   UNL     1      67.526  36.247 121.513  1.00  0.00    -0.504 OA
ATOM     21  H   UNL     1      67.880  36.182 122.378  1.00  0.00    +0.293 HD
ENDBRANCH  17  20
ENDBRANCH   5  12
BRANCH   8  22
ATOM     22  O   UNL     1      64.953  27.071 116.617  1.00  0.00    -0.507 OA
ATOM     23  H   UNL     1      64.595  26.639 115.866  1.00  0.00    +0.293 HD
ENDBRANCH   8  22
BRANCH  10  24
ATOM     24  O   UNL     1      60.717  28.630 118.111  1.00  0.00    -0.508 OA
ATOM     25  H   UNL     1      60.292  27.905 117.696  1.00  0.00    +0.293 HD
ENDBRANCH  10  24
TORSDOF 5
ENDMDL
MODEL 13
REMARK VINA RESULT:    -6.949      6.159     11.471
REMARK INTER + INTRA:          -8.497
REMARK INTER:                  -8.229
REMARK INTRA:                  -0.268
REMARK UNBOUND:                -0.329
REMARK SMILES O=c1cc(-c2ccc(O)c(O)c2)oc2cc(O)cc(O)c12
REMARK SMILES IDX 13 1 1 2 21 3 14 4 4 5 2 6 3 7 19 8 15 9 16 10 18 11 5 12
REMARK SMILES IDX 12 13 6 14 10 15 7 16 8 17 11 18 9 20 20 22 17 24
REMARK H PARENT 11 19 9 21 20 23 17 25
REMARK INDEX MAP 1 1 3 2 7 3 8 4 9 5 11 6 12 7 13 8 14 9 16 10 17 11 10 12
REMARK INDEX MAP 15 13 18 14 19 15 20 16 21 17 5 18 24 19 6 20 25 21 2 22
REMARK INDEX MAP 22 23 4 24 23 25
ROOT
ATOM      1  O   UNL     1      68.702  29.662 112.088  1.00  0.00    -0.456 OA
ATOM      2  O   UNL     1      65.656  27.119 111.221  1.00  0.00    -0.289 OA
ATOM      3  C   UNL     1      66.499  28.795 112.635  1.00  0.00    +0.107 A 
ATOM      4  C   UNL     1      67.579  29.643 112.876  1.00  0.00    +0.146 A 
ATOM      5  C   UNL     1      68.763  28.804 111.001  1.00  0.00    +0.138 A 
ATOM      6  C   UNL     1      66.576  27.884 111.486  1.00  0.00    +0.197 A 
ATOM      7  C   UNL     1      67.796  27.935 110.670  1.00  0.00    +0.100 A 
ATOM      8  C   UNL     1      65.383  28.825 113.477  1.00  0.00    +0.134 A 
ATOM      9  C   UNL     1      67.546  30.521 113.958  1.00  0.00    +0.094 A 
ATOM     10  C   UNL     1      66.429  30.543 114.790  1.00  0.00    +0.123 A 
ATOM     11  C   UNL     1      65.344  29.701 114.559  1.00  0.00    +0.093 A 
ENDROOT
BRANCH   5  12
ATOM     12  C   UNL     1      70.017  28.897 110.229  1.00  0.00    +0.021 A 
ATOM     13  C   UNL     1      70.074  29.708 109.086  1.00  0.00    +0.062 A 
ATOM     14  C   UNL     1      71.162  28.165 110.599  1.00  0.00    +0.016 A 
ATOM     15  C   UNL     1      71.252  29.788 108.354  1.00  0.00    +0.158 A 
ATOM     16  C   UNL     1      72.346  28.251 109.854  1.00  0.00    +0.051 A 
ATOM     17  C   UNL     1      72.381  29.068 108.733  1.00  0.00    +0.157 A 
BRANCH  15  18
ATOM     18  O   UNL     1      71.294  30.588 107.248  1.00  0.00    -0.504 OA
ATOM     19  H   UNL     1      70.557  31.122 107.027  1.00  0.00    +0.293 HD
ENDBRANCH  15  18
BRANCH  17  20
ATOM     20  O   UNL     1      73.505  29.196 107.965  1.00  0.00    -0.504 OA
ATOM     21  H   UNL     1      74.341  28.958 108.315  1.00  0.00    +0.293 HD
ENDBRANCH  17  20
ENDBRANCH   5  12
BRANCH   8  22
ATOM     22  O   UNL     1      64.291  28.020 113.295  1.00  0.00    -0.507 OA
ATOM     23  H   UNL     1      63.953  27.876 112.433  1.00  0.00    +0.293 HD
ENDBRANCH   8  22
BRANCH  10  24
ATOM     24  O   UNL     1      66.437  31.417 115.836  1.00  0.00    -0.508 OA
ATOM     25  H   UNL     1      66.203  31.123 116.695  1.00  0.00    +0.293 HD
ENDBRANCH  10  24
TORSDOF 5
ENDMDL
MODEL 14
REMARK VINA RESULT:    -6.943      5.811      8.034
REMARK INTER + INTRA:          -8.489
REMARK INTER:                  -8.210
REMARK INTRA:                  -0.279
REMARK UNBOUND:                -0.329
REMARK SMILES O=c1cc(-c2ccc(O)c(O)c2)oc2cc(O)cc(O)c12
REMARK SMILES IDX 13 1 1 2 21 3 14 4 4 5 2 6 3 7 19 8 15 9 16 10 18 11 5 12
REMARK SMILES IDX 12 13 6 14 10 15 7 16 8 17 11 18 9 20 20 22 17 24
REMARK H PARENT 11 19 9 21 20 23 17 25
REMARK INDEX MAP 1 1 3 2 7 3 8 4 9 5 11 6 12 7 13 8 14 9 16 10 17 11 10 12
REMARK INDEX MAP 15 13 18 14 19 15 20 16 21 17 5 18 24 19 6 20 25 21 2 22
REMARK INDEX MAP 22 23 4 24 23 25
ROOT
ATOM      1  O   UNL     1      65.843  31.117 120.987  1.00  0.00    -0.456 OA
ATOM      2  O   UNL     1      66.792  34.941 120.001  1.00  0.00    -0.289 OA
ATOM      3  C   UNL     1      66.390  33.374 121.703  1.00  0.00    +0.107 A 
ATOM      4  C   UNL     1      66.062  32.046 121.973  1.00  0.00    +0.146 A 
ATOM      5  C   UNL     1      65.959  31.516 119.664  1.00  0.00    +0.138 A 
ATOM      6  C   UNL     1      66.503  33.789 120.300  1.00  0.00    +0.197 A 
ATOM      7  C   UNL     1      66.258  32.764 119.276  1.00  0.00    +0.100 A 
ATOM      8  C   UNL     1      66.601  34.271 122.755  1.00  0.00    +0.134 A 
ATOM      9  C   UNL     1      65.944  31.613 123.293  1.00  0.00    +0.094 A 
ATOM     10  C   UNL     1      66.157  32.515 124.332  1.00  0.00    +0.123 A 
ATOM     11  C   UNL     1      66.486  33.843 124.076  1.00  0.00    +0.093 A 
ENDROOT
BRANCH   5  12
ATOM     12  C   UNL     1      65.691  30.444 118.686  1.00  0.00    +0.021 A 
ATOM     13  C   UNL     1      64.393  29.931 118.551  1.00  0.00    +0.062 A 
ATOM     14  C   UNL     1      66.721  29.901 117.894  1.00  0.00    +0.016 A 
ATOM     15  C   UNL     1      64.143  28.916 117.635  1.00  0.00    +0.158 A 
ATOM     16  C   UNL     1      66.461  28.877 116.974  1.00  0.00    +0.051 A 
ATOM     17  C   UNL     1      65.166  28.392 116.850  1.00  0.00    +0.157 A 
BRANCH  15  18
ATOM     18  O   UNL     1      62.873  28.432 117.510  1.00  0.00    -0.504 OA
ATOM     19  H   UNL     1      62.698  27.526 117.670  1.00  0.00    +0.293 HD
ENDBRANCH  15  18
BRANCH  17  20
ATOM     20  O   UNL     1      64.847  27.395 115.972  1.00  0.00    -0.504 OA
ATOM     21  H   UNL     1      64.287  26.694 116.243  1.00  0.00    +0.293 HD
ENDBRANCH  17  20
ENDBRANCH   5  12
BRANCH   8  22
ATOM     22  O   UNL     1      66.926  35.586 122.558  1.00  0.00    -0.507 OA
ATOM     23  H   UNL     1      66.773  35.987 121.725  1.00  0.00    +0.293 HD
ENDBRANCH   8  22
BRANCH  10  24
ATOM     24  O   UNL     1      66.032  32.050 125.609  1.00  0.00    -0.508 OA
ATOM     25  H   UNL     1      66.720  31.541 125.992  1.00  0.00    +0.293 HD
ENDBRANCH  10  24
TORSDOF 5
ENDMDL
MODEL 15
REMARK VINA RESULT:    -6.898      4.838      7.318
REMARK INTER + INTRA:          -8.437
REMARK INTER:                  -8.143
REMARK INTRA:                  -0.294
REMARK UNBOUND:                -0.329
REMARK SMILES O=c1cc(-c2ccc(O)c(O)c2)oc2cc(O)cc(O)c12
REMARK SMILES IDX 13 1 1 2 21 3 14 4 4 5 2 6 3 7 19 8 15 9 16 10 18 11 5 12
REMARK SMILES IDX 12 13 6 14 10 15 7 16 8 17 11 18 9 20 20 22 17 24
REMARK H PARENT 11 19 9 21 20 23 17 25
REMARK INDEX MAP 1 1 3 2 7 3 8 4 9 5 11 6 12 7 13 8 14 9 16 10 17 11 10 12
REMARK INDEX MAP 15 13 18 14 19 15 20 16 21 17 5 18 24 19 6 20 25 21 2 22
REMARK INDEX MAP 22 23 4 24 23 25
ROOT
ATOM      1  O   UNL     1      66.076  29.337 113.923  1.00  0.00    -0.456 OA
ATOM      2  O   UNL     1      68.757  31.703 111.995  1.00  0.00    -0.289 OA
ATOM      3  C   UNL     1      67.309  29.856 111.894  1.00  0.00    +0.107 A 
ATOM      4  C   UNL     1      66.397  29.084 112.613  1.00  0.00    +0.146 A 
ATOM      5  C   UNL     1      66.682  30.410 114.558  1.00  0.00    +0.138 A 
ATOM      6  C   UNL     1      67.950  30.986 112.576  1.00  0.00    +0.197 A 
ATOM      7  C   UNL     1      67.581  31.220 113.978  1.00  0.00    +0.100 A 
ATOM      8  C   UNL     1      67.592  29.545 110.560  1.00  0.00    +0.134 A 
ATOM      9  C   UNL     1      65.768  28.001 112.001  1.00  0.00    +0.094 A 
ATOM     10  C   UNL     1      66.057  27.701 110.672  1.00  0.00    +0.123 A 
ATOM     11  C   UNL     1      66.965  28.464 109.944  1.00  0.00    +0.093 A 
ENDROOT
BRANCH   5  12
ATOM     12  C   UNL     1      66.276  30.586 115.965  1.00  0.00    +0.021 A 
ATOM     13  C   UNL     1      67.199  31.076 116.901  1.00  0.00    +0.062 A 
ATOM     14  C   UNL     1      64.981  30.248 116.404  1.00  0.00    +0.016 A 
ATOM     15  C   UNL     1      66.820  31.234 118.228  1.00  0.00    +0.158 A 
ATOM     16  C   UNL     1      64.608  30.408 117.744  1.00  0.00    +0.051 A 
ATOM     17  C   UNL     1      65.534  30.905 118.649  1.00  0.00    +0.157 A 
BRANCH  15  18
ATOM     18  O   UNL     1      67.727  31.720 119.126  1.00  0.00    -0.504 OA
ATOM     19  H   UNL     1      68.636  31.754 118.902  1.00  0.00    +0.293 HD
ENDBRANCH  15  18
BRANCH  17  20
ATOM     20  O   UNL     1      65.232  31.085 119.970  1.00  0.00    -0.504 OA
ATOM     21  H   UNL     1      65.919  31.219 120.594  1.00  0.00    +0.293 HD
ENDBRANCH  17  20
ENDBRANCH   5  12
BRANCH   8  22
ATOM     22  O   UNL     1      68.475  30.262 109.799  1.00  0.00    -0.507 OA
ATOM     23  H   UNL     1      69.304  29.891 109.569  1.00  0.00    +0.293 HD
ENDBRANCH   8  22
BRANCH  10  24
ATOM     24  O   UNL     1      65.419  26.633 110.112  1.00  0.00    -0.508 OA
ATOM     25  H   UNL     1      64.509  26.692 109.896  1.00  0.00    +0.293 HD
ENDBRANCH  10  24
TORSDOF 5
ENDMDL
MODEL 16
REMARK VINA RESULT:    -6.897      3.348      8.055
REMARK INTER + INTRA:          -8.435
REMARK INTER:                  -8.114
REMARK INTRA:                  -0.321
REMARK UNBOUND:                -0.329
REMARK SMILES O=c1cc(-c2ccc(O)c(O)c2)oc2cc(O)cc(O)c12
REMARK SMILES IDX 13 1 1 2 21 3 14 4 4 5 2 6 3 7 19 8 15 9 16 10 18 11 5 12
REMARK SMILES IDX 12 13 6 14 10 15 7 16 8 17 11 18 9 20 20 22 17 24
REMARK H PARENT 11 19 9 21 20 23 17 25
REMARK INDEX MAP 1 1 3 2 7 3 8 4 9 5 11 6 12 7 13 8 14 9 16 10 17 11 10 12
REMARK INDEX MAP 15 13 18 14 19 15 20 16 21 17 5 18 24 19 6 20 25 21 2 22
REMARK INDEX MAP 22 23 4 24 23 25
ROOT
ATOM      1  O   UNL     1      64.618  29.131 115.029  1.00  0.00    -0.456 OA
ATOM      2  O   UNL     1      66.768  31.297 117.709  1.00  0.00    -0.289 OA
ATOM      3  C   UNL     1      64.819  30.064 117.264  1.00  0.00    +0.107 A 
ATOM      4  C   UNL     1      64.133  29.330 116.297  1.00  0.00    +0.146 A 
ATOM      5  C   UNL     1      65.847  29.679 114.696  1.00  0.00    +0.138 A 
ATOM      6  C   UNL     1      66.116  30.647 116.901  1.00  0.00    +0.197 A 
ATOM      7  C   UNL     1      66.598  30.412 115.533  1.00  0.00    +0.100 A 
ATOM      8  C   UNL     1      64.269  30.229 118.539  1.00  0.00    +0.134 A 
ATOM      9  C   UNL     1      62.897  28.762 116.602  1.00  0.00    +0.094 A 
ATOM     10  C   UNL     1      62.359  28.933 117.875  1.00  0.00    +0.123 A 
ATOM     11  C   UNL     1      63.035  29.662 118.850  1.00  0.00    +0.093 A 
ENDROOT
BRANCH   5  12
ATOM     12  C   UNL     1      66.269  29.417 113.307  1.00  0.00    +0.021 A 
ATOM     13  C   UNL     1      65.756  28.306 112.620  1.00  0.00    +0.062 A 
ATOM     14  C   UNL     1      67.202  30.246 112.654  1.00  0.00    +0.016 A 
ATOM     15  C   UNL     1      66.160  28.054 111.316  1.00  0.00    +0.158 A 
ATOM     16  C   UNL     1      67.605  29.983 111.339  1.00  0.00    +0.051 A 
ATOM     17  C   UNL     1      67.076  28.885 110.676  1.00  0.00    +0.157 A 
BRANCH  15  18
ATOM     18  O   UNL     1      65.646  26.973 110.658  1.00  0.00    -0.504 OA
ATOM     19  H   UNL     1      64.719  26.844 110.621  1.00  0.00    +0.293 HD
ENDBRANCH  15  18
BRANCH  17  20
ATOM     20  O   UNL     1      67.427  28.575 109.392  1.00  0.00    -0.504 OA
ATOM     21  H   UNL     1      67.663  27.695 109.171  1.00  0.00    +0.293 HD
ENDBRANCH  17  20
ENDBRANCH   5  12
BRANCH   8  22
ATOM     22  O   UNL     1      64.892  30.936 119.533  1.00  0.00    -0.507 OA
ATOM     23  H   UNL     1      64.889  30.610 120.411  1.00  0.00    +0.293 HD
ENDBRANCH   8  22
BRANCH  10  24
ATOM     24  O   UNL     1      61.149  28.360 118.132  1.00  0.00    -0.508 OA
ATOM     25  H   UNL     1      61.032  27.835 118.900  1.00  0.00    +0.293 HD
ENDBRANCH  10  24
TORSDOF 5
ENDMDL
MODEL 17
REMARK VINA RESULT:    -6.654      5.001      6.078
REMARK INTER + INTRA:          -8.150
REMARK INTER:                  -7.853
REMARK INTRA:                  -0.297
REMARK UNBOUND:                -0.329
REMARK SMILES O=c1cc(-c2ccc(O)c(O)c2)oc2cc(O)cc(O)c12
REMARK SMILES IDX 13 1 1 2 21 3 14 4 4 5 2 6 3 7 19 8 15 9 16 10 18 11 5 12
REMARK SMILES IDX 12 13 6 14 10 15 7 16 8 17 11 18 9 20 20 22 17 24
REMARK H PARENT 11 19 9 21 20 23 17 25
REMARK INDEX MAP 1 1 3 2 7 3 8 4 9 5 11 6 12 7 13 8 14 9 16 10 17 11 10 12
REMARK INDEX MAP 15 13 18 14 19 15 20 16 21 17 5 18 24 19 6 20 25 21 2 22
REMARK INDEX MAP 22 23 4 24 23 25
ROOT
ATOM      1  O   UNL     1      66.600  31.308 116.964  1.00  0.00    -0.456 OA
ATOM      2  O   UNL     1      64.383  27.910 116.764  1.00  0.00    -0.289 OA
ATOM      3  C   UNL     1      65.743  29.460 115.639  1.00  0.00    +0.107 A 
ATOM      4  C   UNL     1      66.489  30.630 115.776  1.00  0.00    +0.146 A 
ATOM      5  C   UNL     1      65.947  30.803 118.078  1.00  0.00    +0.138 A 
ATOM      6  C   UNL     1      65.049  28.937 116.822  1.00  0.00    +0.197 A 
ATOM      7  C   UNL     1      65.193  29.694 118.072  1.00  0.00    +0.100 A 
ATOM      8  C   UNL     1      65.671  28.817 114.399  1.00  0.00    +0.134 A 
ATOM      9  C   UNL     1      67.162  31.159 114.676  1.00  0.00    +0.094 A 
ATOM     10  C   UNL     1      67.082  30.510 113.446  1.00  0.00    +0.123 A 
ATOM     11  C   UNL     1      66.342  29.341 113.296  1.00  0.00    +0.093 A 
ENDROOT
BRANCH   5  12
ATOM     12  C   UNL     1      66.122  31.614 119.299  1.00  0.00    +0.021 A 
ATOM     13  C   UNL     1      66.015  31.008 120.559  1.00  0.00    +0.062 A 
ATOM     14  C   UNL     1      66.373  32.998 119.230  1.00  0.00    +0.016 A 
ATOM     15  C   UNL     1      66.172  31.773 121.708  1.00  0.00    +0.158 A 
ATOM     16  C   UNL     1      66.528  33.762 120.394  1.00  0.00    +0.051 A 
ATOM     17  C   UNL     1      66.428  33.138 121.630  1.00  0.00    +0.157 A 
BRANCH  15  18
ATOM     18  O   UNL     1      66.071  31.167 122.928  1.00  0.00    -0.504 OA
ATOM     19  H   UNL     1      65.392  30.543 123.088  1.00  0.00    +0.293 HD
ENDBRANCH  15  18
BRANCH  17  20
ATOM     20  O   UNL     1      66.570  33.827 122.802  1.00  0.00    -0.504 OA
ATOM     21  H   UNL     1      66.897  34.705 122.793  1.00  0.00    +0.293 HD
ENDBRANCH  17  20
ENDBRANCH   5  12
BRANCH   8  22
ATOM     22  O   UNL     1      64.958  27.665 114.198  1.00  0.00    -0.507 OA
ATOM     23  H   UNL     1      64.247  27.449 114.768  1.00  0.00    +0.293 HD
ENDBRANCH   8  22
BRANCH  10  24
ATOM     24  O   UNL     1      67.756  31.061 112.396  1.00  0.00    -0.508 OA
ATOM     25  H   UNL     1      67.368  31.069 111.543  1.00  0.00    +0.293 HD
ENDBRANCH  10  24
TORSDOF 5
ENDMDL
MODEL 18
REMARK VINA RESULT:    -6.640      7.858     13.050
REMARK INTER + INTRA:          -8.133
REMARK INTER:                  -7.810
REMARK INTRA:                  -0.323
REMARK UNBOUND:                -0.329
REMARK SMILES O=c1cc(-c2ccc(O)c(O)c2)oc2cc(O)cc(O)c12
REMARK SMILES IDX 13 1 1 2 21 3 14 4 4 5 2 6 3 7 19 8 15 9 16 10 18 11 5 12
REMARK SMILES IDX 12 13 6 14 10 15 7 16 8 17 11 18 9 20 20 22 17 24
REMARK H PARENT 11 19 9 21 20 23 17 25
REMARK INDEX MAP 1 1 3 2 7 3 8 4 9 5 11 6 12 7 13 8 14 9 16 10 17 11 10 12
REMARK INDEX MAP 15 13 18 14 19 15 20 16 21 17 5 18 24 19 6 20 25 21 2 22
REMARK INDEX MAP 22 23 4 24 23 25
ROOT
ATOM      1  O   UNL     1      70.003  27.947 111.830  1.00  0.00    -0.456 OA
ATOM      2  O   UNL     1      69.047  30.180 108.574  1.00  0.00    -0.289 OA
ATOM      3  C   UNL     1      68.309  29.101 110.526  1.00  0.00    +0.107 A 
ATOM      4  C   UNL     1      68.704  28.336 111.622  1.00  0.00    +0.146 A 
ATOM      5  C   UNL     1      70.966  28.337 110.912  1.00  0.00    +0.138 A 
ATOM      6  C   UNL     1      69.333  29.503 109.555  1.00  0.00    +0.197 A 
ATOM      7  C   UNL     1      70.711  29.064 109.814  1.00  0.00    +0.100 A 
ATOM      8  C   UNL     1      66.967  29.464 110.372  1.00  0.00    +0.134 A 
ATOM      9  C   UNL     1      67.760  27.932 112.566  1.00  0.00    +0.094 A 
ATOM     10  C   UNL     1      66.427  28.300 112.403  1.00  0.00    +0.123 A 
ATOM     11  C   UNL     1      66.020  29.065 111.313  1.00  0.00    +0.093 A 
ENDROOT
BRANCH   5  12
ATOM     12  C   UNL     1      72.326  27.856 111.223  1.00  0.00    +0.021 A 
ATOM     13  C   UNL     1      72.501  26.777 112.102  1.00  0.00    +0.062 A 
ATOM     14  C   UNL     1      73.466  28.474 110.674  1.00  0.00    +0.016 A 
ATOM     15  C   UNL     1      73.781  26.330 112.401  1.00  0.00    +0.158 A 
ATOM     16  C   UNL     1      74.754  28.018 110.982  1.00  0.00    +0.051 A 
ATOM     17  C   UNL     1      74.901  26.942 111.846  1.00  0.00    +0.157 A 
BRANCH  15  18
ATOM     18  O   UNL     1      73.934  25.273 113.253  1.00  0.00    -0.504 OA
ATOM     19  H   UNL     1      74.136  24.424 112.915  1.00  0.00    +0.293 HD
ENDBRANCH  15  18
BRANCH  17  20
ATOM     20  O   UNL     1      76.130  26.449 112.186  1.00  0.00    -0.504 OA
ATOM     21  H   UNL     1      76.229  25.936 112.964  1.00  0.00    +0.293 HD
ENDBRANCH  17  20
ENDBRANCH   5  12
BRANCH   8  22
ATOM     22  O   UNL     1      66.514  30.215 109.321  1.00  0.00    -0.507 OA
ATOM     23  H   UNL     1      66.142  29.794 108.571  1.00  0.00    +0.293 HD
ENDBRANCH   8  22
BRANCH  10  24
ATOM     24  O   UNL     1      65.537  27.886 113.349  1.00  0.00    -0.508 OA
ATOM     25  H   UNL     1      65.829  27.370 114.074  1.00  0.00    +0.293 HD
ENDBRANCH  10  24
TORSDOF 5
ENDMDL
MODEL 19
REMARK VINA RESULT:    -6.627      5.225      6.739
REMARK INTER + INTRA:          -8.118
REMARK INTER:                  -7.795
REMARK INTRA:                  -0.324
REMARK UNBOUND:                -0.329
REMARK SMILES O=c1cc(-c2ccc(O)c(O)c2)oc2cc(O)cc(O)c12
REMARK SMILES IDX 13 1 1 2 21 3 14 4 4 5 2 6 3 7 19 8 15 9 16 10 18 11 5 12
REMARK SMILES IDX 12 13 6 14 10 15 7 16 8 17 11 18 9 20 20 22 17 24
REMARK H PARENT 11 19 9 21 20 23 17 25
REMARK INDEX MAP 1 1 3 2 7 3 8 4 9 5 11 6 12 7 13 8 14 9 16 10 17 11 10 12
REMARK INDEX MAP 15 13 18 14 19 15 20 16 21 17 5 18 24 19 6 20 25 21 2 22
REMARK INDEX MAP 22 23 4 24 23 25
ROOT
ATOM      1  O   UNL     1      67.062  30.614 114.564  1.00  0.00    -0.456 OA
ATOM      2  O   UNL     1      64.526  27.904 112.915  1.00  0.00    -0.289 OA
ATOM      3  C   UNL     1      66.316  29.393 112.601  1.00  0.00    +0.107 A 
ATOM      4  C   UNL     1      67.155  30.311 113.229  1.00  0.00    +0.146 A 
ATOM      5  C   UNL     1      66.095  29.974 115.323  1.00  0.00    +0.138 A 
ATOM      6  C   UNL     1      65.289  28.725 113.410  1.00  0.00    +0.197 A 
ATOM      7  C   UNL     1      65.223  29.079 114.834  1.00  0.00    +0.100 A 
ATOM      8  C   UNL     1      66.463  29.128 111.236  1.00  0.00    +0.134 A 
ATOM      9  C   UNL     1      68.142  30.968 112.495  1.00  0.00    +0.094 A 
ATOM     10  C   UNL     1      68.279  30.697 111.135  1.00  0.00    +0.123 A 
ATOM     11  C   UNL     1      67.448  29.781 110.497  1.00  0.00    +0.093 A 
ENDROOT
BRANCH   5  12
ATOM     12  C   UNL     1      66.073  30.380 116.741  1.00  0.00    +0.021 A 
ATOM     13  C   UNL     1      67.200  30.994 117.308  1.00  0.00    +0.062 A 
ATOM     14  C   UNL     1      64.949  30.144 117.555  1.00  0.00    +0.016 A 
ATOM     15  C   UNL     1      67.183  31.369 118.645  1.00  0.00    +0.158 A 
ATOM     16  C   UNL     1      64.940  30.524 118.903  1.00  0.00    +0.051 A 
ATOM     17  C   UNL     1      66.063  31.139 119.439  1.00  0.00    +0.157 A 
BRANCH  15  18
ATOM     18  O   UNL     1      68.285  31.972 119.181  1.00  0.00    -0.504 OA
ATOM     19  H   UNL     1      68.533  31.795 120.066  1.00  0.00    +0.293 HD
ENDBRANCH  15  18
BRANCH  17  20
ATOM     20  O   UNL     1      66.118  31.534 120.746  1.00  0.00    -0.504 OA
ATOM     21  H   UNL     1      66.947  31.625 121.174  1.00  0.00    +0.293 HD
ENDBRANCH  17  20
ENDBRANCH   5  12
BRANCH   8  22
ATOM     22  O   UNL     1      65.673  28.238 110.560  1.00  0.00    -0.507 OA
ATOM     23  H   UNL     1      65.975  27.858 109.758  1.00  0.00    +0.293 HD
ENDBRANCH   8  22
BRANCH  10  24
ATOM     24  O   UNL     1      69.257  31.360 110.454  1.00  0.00    -0.508 OA
ATOM     25  H   UNL     1      69.470  32.244 110.682  1.00  0.00    +0.293 HD
ENDBRANCH  10  24
TORSDOF 5
ENDMDL
MODEL 20
REMARK VINA RESULT:    -6.562      4.339      8.267
REMARK INTER + INTRA:          -8.042
REMARK INTER:                  -7.741
REMARK INTRA:                  -0.301
REMARK UNBOUND:                -0.329
REMARK SMILES O=c1cc(-c2ccc(O)c(O)c2)oc2cc(O)cc(O)c12
REMARK SMILES IDX 13 1 1 2 21 3 14 4 4 5 2 6 3 7 19 8 15 9 16 10 18 11 5 12
REMARK SMILES IDX 12 13 6 14 10 15 7 16 8 17 11 18 9 20 20 22 17 24
REMARK H PARENT 11 19 9 21 20 23 17 25
REMARK INDEX MAP 1 1 3 2 7 3 8 4 9 5 11 6 12 7 13 8 14 9 16 10 17 11 10 12
REMARK INDEX MAP 15 13 18 14 19 15 20 16 21 17 5 18 24 19 6 20 25 21 2 22
REMARK INDEX MAP 22 23 4 24 23 25
ROOT
ATOM      1  O   UNL     1      66.838  30.346 115.515  1.00  0.00    -0.456 OA
ATOM      2  O   UNL     1      63.114  28.996 116.411  1.00  0.00    -0.289 OA
ATOM      3  C   UNL     1      65.063  30.078 117.151  1.00  0.00    +0.107 A 
ATOM      4  C   UNL     1      66.332  30.518 116.778  1.00  0.00    +0.146 A 
ATOM      5  C   UNL     1      66.051  29.711 114.566  1.00  0.00    +0.138 A 
ATOM      6  C   UNL     1      64.239  29.401 116.143  1.00  0.00    +0.197 A 
ATOM      7  C   UNL     1      64.820  29.235 114.804  1.00  0.00    +0.100 A 
ATOM      8  C   UNL     1      64.606  30.285 118.457  1.00  0.00    +0.134 A 
ATOM      9  C   UNL     1      67.146  31.164 117.707  1.00  0.00    +0.094 A 
ATOM     10  C   UNL     1      66.680  31.365 119.004  1.00  0.00    +0.123 A 
ATOM     11  C   UNL     1      65.414  30.931 119.389  1.00  0.00    +0.093 A 
ENDROOT
BRANCH   5  12
ATOM     12  C   UNL     1      66.694  29.567 113.246  1.00  0.00    +0.021 A 
ATOM     13  C   UNL     1      66.252  28.575 112.359  1.00  0.00    +0.062 A 
ATOM     14  C   UNL     1      67.768  30.393 112.859  1.00  0.00    +0.016 A 
ATOM     15  C   UNL     1      66.864  28.434 111.120  1.00  0.00    +0.158 A 
ATOM     16  C   UNL     1      68.380  30.243 111.608  1.00  0.00    +0.051 A 
ATOM     17  C   UNL     1      67.918  29.261 110.743  1.00  0.00    +0.157 A 
BRANCH  15  18
ATOM     18  O   UNL     1      66.417  27.467 110.264  1.00  0.00    -0.504 OA
ATOM     19  H   UNL     1      65.638  26.988 110.465  1.00  0.00    +0.293 HD
ENDBRANCH  15  18
BRANCH  17  20
ATOM     20  O   UNL     1      68.472  29.064 109.509  1.00  0.00    -0.504 OA
ATOM     21  H   UNL     1      67.921  28.890 108.771  1.00  0.00    +0.293 HD
ENDBRANCH  17  20
ENDBRANCH   5  12
BRANCH   8  22
ATOM     22  O   UNL     1      63.371  29.879 118.887  1.00  0.00    -0.507 OA
ATOM     23  H   UNL     1      62.894  29.234 118.402  1.00  0.00    +0.293 HD
ENDBRANCH   8  22
BRANCH  10  24
ATOM     24  O   UNL     1      67.507  32.002 119.882  1.00  0.00    -0.508 OA
ATOM     25  H   UNL     1      68.338  31.626 120.100  1.00  0.00    +0.293 HD
ENDBRANCH  10  24
TORSDOF 5
ENDMDL
