REMARK SMILES CC[C@H](/C=C/[C@@H](C)[C@H]1CC[C@H]2C3=CC[C@H]4C[C@@H](O)CC[C@]4(C)[C@H]3CC[C@]12C)C(C)C
REMARK SMILES IDX 5 1 4 2 6 3 7 4 8 5 17 6 16 7 19 8 15 9 20 10 21 11 14 12
REMARK SMILES IDX 23 13 13 14 12 15 24 16 11 17 25 18 26 19 10 20 9 21 22 22
REMARK SMILES IDX 27 23 18 24 3 26 28 27 29 28 30 29 2 30 1 31
REMARK H PARENT 18 25
REMARK INDEX MAP 23 1 24 2 17 3 22 4 6 5 21 6 18 7 20 8 10 9 13 10 5 11 14 12
REMARK INDEX MAP 4 13 16 14 7 15 9 16 3 17 8 18 2 19 11 20 12 21 19 22 15 23
REMARK INDEX MAP 1 24 31 25 25 26 26 27 28 28 29 29 27 30 30 31
ROOT
ATOM      1  C   UNL     1      -4.151  -0.819  -0.395  1.00  0.00    -0.028 C 
ATOM      2  C   UNL     1      -5.211  -0.319   0.262  1.00  0.00    -0.027 C 
ENDROOT
BRANCH   1   3
ATOM      3  C   UNL     1      -2.834  -1.174   0.268  1.00  0.00    +0.012 C 
ATOM      4  C   UNL     1      -2.652  -2.688   0.160  1.00  0.00    +0.012 C 
BRANCH   3   5
ATOM      5  C   UNL     1      -1.675  -0.364  -0.371  1.00  0.00    +0.002 C 
ATOM      6  C   UNL     1       7.096   0.171  -0.632  1.00  0.00    +0.114 C 
ATOM      7  C   UNL     1       6.274   1.214   0.122  1.00  0.00    +0.036 C 
ATOM      8  C   UNL     1       6.606  -1.249  -0.368  1.00  0.00    +0.032 C 
ATOM      9  C   UNL     1       4.775   1.060  -0.164  1.00  0.00    +0.002 C 
ATOM     10  C   UNL     1       5.112  -1.398  -0.658  1.00  0.00    +0.010 C 
ATOM     11  C   UNL     1       4.231  -0.376   0.112  1.00  0.00    -0.023 C 
ATOM     12  C   UNL     1       3.960   2.122   0.591  1.00  0.00    +0.031 C 
ATOM     13  C   UNL     1       2.745  -0.435  -0.427  1.00  0.00    +0.021 C 
ATOM     14  C   UNL     1       2.483   1.934   0.410  1.00  0.00    -0.027 C 
ATOM     15  C   UNL     1       1.921   0.811  -0.074  1.00  0.00    -0.067 C 
ATOM     16  C   UNL     1       2.018  -1.754  -0.047  1.00  0.00    +0.009 C 
ATOM     17  C   UNL     1       0.457   0.696  -0.428  1.00  0.00    +0.021 C 
ATOM     18  C   UNL     1       0.522  -1.780  -0.402  1.00  0.00    +0.008 C 
ATOM     19  C   UNL     1      -0.225  -0.559   0.170  1.00  0.00    -0.023 C 
ATOM     20  C   UNL     1      -0.522   1.823  -0.107  1.00  0.00    +0.009 C 
ATOM     21  C   UNL     1      -1.903   1.171  -0.243  1.00  0.00    +0.005 C 
ATOM     22  C   UNL     1       4.291  -0.709   1.627  1.00  0.00    +0.012 C 
ATOM     23  C   UNL     1      -0.198  -0.576   1.718  1.00  0.00    +0.012 C 
BRANCH   6  24
ATOM     24  O   UNL     1       8.465   0.281  -0.257  1.00  0.00    -0.393 OA
ATOM     25  H   UNL     1       8.775   1.185  -0.426  1.00  0.00    +0.210 HD
ENDBRANCH   6  24
ENDBRANCH   3   5
ENDBRANCH   1   3
BRANCH   2  26
ATOM     26  C   UNL     1      -6.531   0.018  -0.400  1.00  0.00    +0.014 C 
BRANCH  26  27
ATOM     27  C   UNL     1      -6.864   1.539  -0.348  1.00  0.00    -0.011 C 
ATOM     28  C   UNL     1      -5.826   2.371  -1.112  1.00  0.00    +0.008 C 
ATOM     29  C   UNL     1      -7.032   2.102   1.067  1.00  0.00    +0.008 C 
ENDBRANCH  26  27
BRANCH  26  30
ATOM     30  C   UNL     1      -7.673  -0.830   0.205  1.00  0.00    +0.004 C 
ATOM     31  C   UNL     1      -7.534  -2.320  -0.088  1.00  0.00    +0.004 C 
ENDBRANCH  26  30
ENDBRANCH   2  26
TORSDOF 6
