MODEL 1
REMARK VINA RESULT:    -3.792      0.000      0.000
REMARK INTER + INTRA:          -4.709
REMARK INTER:                  -5.011
REMARK INTRA:                   0.303
REMARK UNBOUND:                 0.303
REMARK SMILES CC[C@H](/C=C/[C@@H](C)[C@H]1CC[C@H]2C3=CC[C@H]4C[C@@H](O)CC[C@]4(C)[C@H]3CC[C@]12C)C(C)C
REMARK SMILES IDX 5 1 4 2 6 3 7 4 8 5 17 6 16 7 19 8 15 9 20 10 21 11 14 12
REMARK SMILES IDX 23 13 13 14 12 15 24 16 11 17 25 18 26 19 10 20 9 21 22 22
REMARK SMILES IDX 27 23 18 24 3 26 28 27 29 28 30 29 2 30 1 31
REMARK H PARENT 18 25
REMARK INDEX MAP 23 1 24 2 17 3 22 4 6 5 21 6 18 7 20 8 10 9 13 10 5 11 14 12
REMARK INDEX MAP 4 13 16 14 7 15 9 16 3 17 8 18 2 19 11 20 12 21 19 22 15 23
REMARK INDEX MAP 1 24 31 25 25 26 26 27 28 28 29 29 27 30 30 31
ROOT
ATOM      1  C   UNL     1      18.978  66.400  16.682  1.00  0.00    -0.028 C 
ATOM      2  C   UNL     1      19.354  65.230  16.138  1.00  0.00    -0.027 C 
ENDROOT
BRANCH   1   3
ATOM      3  C   UNL     1      19.134  67.743  15.994  1.00  0.00    +0.012 C 
ATOM      4  C   UNL     1      17.738  68.232  15.609  1.00  0.00    +0.012 C 
BRANCH   3   5
ATOM      5  C   UNL     1      19.905  68.730  16.910  1.00  0.00    +0.002 C 
ATOM      6  C   UNL     1      18.915  73.840  23.994  1.00  0.00    +0.114 C 
ATOM      7  C   UNL     1      19.021  74.453  22.600  1.00  0.00    +0.036 C 
ATOM      8  C   UNL     1      17.996  72.623  24.020  1.00  0.00    +0.032 C 
ATOM      9  C   UNL     1      19.425  73.405  21.555  1.00  0.00    +0.002 C 
ATOM     10  C   UNL     1      18.405  71.580  22.979  1.00  0.00    +0.010 C 
ATOM     11  C   UNL     1      18.496  72.152  21.538  1.00  0.00    -0.023 C 
ATOM     12  C   UNL     1      19.539  74.037  20.159  1.00  0.00    +0.031 C 
ATOM     13  C   UNL     1      19.156  71.082  20.577  1.00  0.00    +0.021 C 
ATOM     14  C   UNL     1      19.834  73.016  19.100  1.00  0.00    -0.027 C 
ATOM     15  C   UNL     1      19.701  71.689  19.276  1.00  0.00    -0.067 C 
ATOM     16  C   UNL     1      18.239  69.855  20.320  1.00  0.00    +0.009 C 
ATOM     17  C   UNL     1      20.176  70.662  18.275  1.00  0.00    +0.021 C 
ATOM     18  C   UNL     1      18.769  68.877  19.259  1.00  0.00    +0.008 C 
ATOM     19  C   UNL     1      19.109  69.592  17.937  1.00  0.00    -0.023 C 
ATOM     20  C   UNL     1      20.707  71.083  16.907  1.00  0.00    +0.009 C 
ATOM     21  C   UNL     1      20.692  69.790  16.084  1.00  0.00    +0.005 C 
ATOM     22  C   UNL     1      17.068  72.528  21.060  1.00  0.00    +0.012 C 
ATOM     23  C   UNL     1      17.835  70.197  17.298  1.00  0.00    +0.012 C 
BRANCH   6  24
ATOM     24  O   UNL     1      18.437  74.819  24.911  1.00  0.00    -0.393 OA
ATOM     25  H   UNL     1      17.471  74.754  24.978  1.00  0.00    +0.210 HD
ENDBRANCH   6  24
ENDBRANCH   3   5
ENDBRANCH   1   3
BRANCH   2  26
ATOM     26  C   UNL     1      19.181  63.889  16.820  1.00  0.00    +0.014 C 
BRANCH  26  27
ATOM     27  C   UNL     1      20.363  63.537  17.772  1.00  0.00    -0.011 C 
ATOM     28  C   UNL     1      21.071  62.246  17.340  1.00  0.00    +0.008 C 
ATOM     29  C   UNL     1      19.977  63.439  19.252  1.00  0.00    +0.008 C 
ENDBRANCH  26  27
BRANCH  26  30
ATOM     30  C   UNL     1      18.948  62.775  15.775  1.00  0.00    +0.004 C 
ATOM     31  C   UNL     1      17.797  61.843  16.137  1.00  0.00    +0.004 C 
ENDBRANCH  26  30
ENDBRANCH   2  26
TORSDOF 6
ENDMDL
MODEL 2
REMARK VINA RESULT:    -3.285      1.266      2.873
REMARK INTER + INTRA:          -4.038
REMARK INTER:                  -3.375
REMARK INTRA:                  -0.663
REMARK UNBOUND:                 0.303
REMARK SMILES CC[C@H](/C=C/[C@@H](C)[C@H]1CC[C@H]2C3=CC[C@H]4C[C@@H](O)CC[C@]4(C)[C@H]3CC[C@]12C)C(C)C
REMARK SMILES IDX 5 1 4 2 6 3 7 4 8 5 17 6 16 7 19 8 15 9 20 10 21 11 14 12
REMARK SMILES IDX 23 13 13 14 12 15 24 16 11 17 25 18 26 19 10 20 9 21 22 22
REMARK SMILES IDX 27 23 18 24 3 26 28 27 29 28 30 29 2 30 1 31
REMARK H PARENT 18 25
REMARK INDEX MAP 23 1 24 2 17 3 22 4 6 5 21 6 18 7 20 8 10 9 13 10 5 11 14 12
REMARK INDEX MAP 4 13 16 14 7 15 9 16 3 17 8 18 2 19 11 20 12 21 19 22 15 23
REMARK INDEX MAP 1 24 31 25 25 26 26 27 28 28 29 29 27 30 30 31
ROOT
ATOM      1  C   UNL     1      19.328  66.475  17.041  1.00  0.00    -0.028 C 
ATOM      2  C   UNL     1      19.321  65.531  16.086  1.00  0.00    -0.027 C 
ENDROOT
BRANCH   1   3
ATOM      3  C   UNL     1      18.951  67.924  16.802  1.00  0.00    +0.012 C 
ATOM      4  C   UNL     1      18.058  67.975  15.563  1.00  0.00    +0.012 C 
BRANCH   3   5
ATOM      5  C   UNL     1      18.285  68.523  18.070  1.00  0.00    +0.002 C 
ATOM      6  C   UNL     1      17.608  75.969  22.694  1.00  0.00    +0.114 C 
ATOM      7  C   UNL     1      18.439  74.800  23.217  1.00  0.00    +0.036 C 
ATOM      8  C   UNL     1      17.844  76.224  21.208  1.00  0.00    +0.032 C 
ATOM      9  C   UNL     1      18.223  73.537  22.374  1.00  0.00    +0.002 C 
ATOM     10  C   UNL     1      17.624  74.963  20.373  1.00  0.00    +0.010 C 
ATOM     11  C   UNL     1      18.473  73.753  20.850  1.00  0.00    -0.023 C 
ATOM     12  C   UNL     1      19.056  72.365  22.918  1.00  0.00    +0.031 C 
ATOM     13  C   UNL     1      18.007  72.440  20.099  1.00  0.00    +0.021 C 
ATOM     14  C   UNL     1      18.942  71.143  22.055  1.00  0.00    -0.027 C 
ATOM     15  C   UNL     1      18.446  71.149  20.804  1.00  0.00    -0.067 C 
ATOM     16  C   UNL     1      18.374  72.447  18.590  1.00  0.00    +0.009 C 
ATOM     17  C   UNL     1      18.161  69.894  20.013  1.00  0.00    +0.021 C 
ATOM     18  C   UNL     1      18.093  71.121  17.862  1.00  0.00    +0.008 C 
ATOM     19  C   UNL     1      18.746  69.923  18.580  1.00  0.00    -0.023 C 
ATOM     20  C   UNL     1      18.571  68.521  20.540  1.00  0.00    +0.009 C 
ATOM     21  C   UNL     1      18.480  67.606  19.313  1.00  0.00    +0.005 C 
ATOM     22  C   UNL     1      19.970  74.055  20.572  1.00  0.00    +0.012 C 
ATOM     23  C   UNL     1      20.289  70.049  18.564  1.00  0.00    +0.012 C 
BRANCH   6  24
ATOM     24  O   UNL     1      17.918  77.144  23.435  1.00  0.00    -0.393 OA
ATOM     25  H   UNL     1      18.041  77.889  22.825  1.00  0.00    +0.210 HD
ENDBRANCH   6  24
ENDBRANCH   3   5
ENDBRANCH   1   3
BRANCH   2  26
ATOM     26  C   UNL     1      19.681  64.080  16.331  1.00  0.00    +0.014 C 
BRANCH  26  27
ATOM     27  C   UNL     1      18.625  63.088  15.759  1.00  0.00    -0.011 C 
ATOM     28  C   UNL     1      18.012  62.217  16.862  1.00  0.00    +0.008 C 
ATOM     29  C   UNL     1      19.143  62.195  14.627  1.00  0.00    +0.008 C 
ENDBRANCH  26  27
BRANCH  26  30
ATOM     30  C   UNL     1      19.931  63.831  17.836  1.00  0.00    +0.004 C 
ATOM     31  C   UNL     1      20.834  62.632  18.104  1.00  0.00    +0.004 C 
ENDBRANCH  26  30
ENDBRANCH   2  26
TORSDOF 6
ENDMDL
MODEL 3
REMARK VINA RESULT:    -2.815      3.831      9.222
REMARK INTER + INTRA:          -3.417
REMARK INTER:                  -4.416
REMARK INTRA:                   0.999
REMARK UNBOUND:                 0.303
REMARK SMILES CC[C@H](/C=C/[C@@H](C)[C@H]1CC[C@H]2C3=CC[C@H]4C[C@@H](O)CC[C@]4(C)[C@H]3CC[C@]12C)C(C)C
REMARK SMILES IDX 5 1 4 2 6 3 7 4 8 5 17 6 16 7 19 8 15 9 20 10 21 11 14 12
REMARK SMILES IDX 23 13 13 14 12 15 24 16 11 17 25 18 26 19 10 20 9 21 22 22
REMARK SMILES IDX 27 23 18 24 3 26 28 27 29 28 30 29 2 30 1 31
REMARK H PARENT 18 25
REMARK INDEX MAP 23 1 24 2 17 3 22 4 6 5 21 6 18 7 20 8 10 9 13 10 5 11 14 12
REMARK INDEX MAP 4 13 16 14 7 15 9 16 3 17 8 18 2 19 11 20 12 21 19 22 15 23
REMARK INDEX MAP 1 24 31 25 25 26 26 27 28 28 29 29 27 30 30 31
ROOT
ATOM      1  C   UNL     1      19.423  75.642  22.572  1.00  0.00    -0.028 C 
ATOM      2  C   UNL     1      18.541  76.412  21.913  1.00  0.00    -0.027 C 
ENDROOT
BRANCH   1   3
ATOM      3  C   UNL     1      20.823  75.341  22.072  1.00  0.00    +0.012 C 
ATOM      4  C   UNL     1      21.461  74.349  23.044  1.00  0.00    +0.012 C 
BRANCH   3   5
ATOM      5  C   UNL     1      20.772  74.828  20.608  1.00  0.00    +0.002 C 
ATOM      6  C   UNL     1      17.126  68.631  15.550  1.00  0.00    +0.114 C 
ATOM      7  C   UNL     1      18.604  68.559  15.927  1.00  0.00    +0.036 C 
ATOM      8  C   UNL     1      16.246  69.006  16.738  1.00  0.00    +0.032 C 
ATOM      9  C   UNL     1      19.073  69.852  16.605  1.00  0.00    +0.002 C 
ATOM     10  C   UNL     1      16.716  70.298  17.408  1.00  0.00    +0.010 C 
ATOM     11  C   UNL     1      18.209  70.260  17.838  1.00  0.00    -0.023 C 
ATOM     12  C   UNL     1      20.564  69.771  16.969  1.00  0.00    +0.031 C 
ATOM     13  C   UNL     1      18.674  71.702  18.291  1.00  0.00    +0.021 C 
ATOM     14  C   UNL     1      21.028  70.982  17.724  1.00  0.00    -0.027 C 
ATOM     15  C   UNL     1      20.199  71.876  18.294  1.00  0.00    -0.067 C 
ATOM     16  C   UNL     1      18.022  72.154  19.626  1.00  0.00    +0.009 C 
ATOM     17  C   UNL     1      20.664  73.184  18.888  1.00  0.00    +0.021 C 
ATOM     18  C   UNL     1      18.576  73.474  20.189  1.00  0.00    +0.008 C 
ATOM     19  C   UNL     1      20.112  73.446  20.311  1.00  0.00    -0.023 C 
ATOM     20  C   UNL     1      22.151  73.508  19.015  1.00  0.00    +0.009 C 
ATOM     21  C   UNL     1      22.197  74.685  19.996  1.00  0.00    +0.005 C 
ATOM     22  C   UNL     1      18.369  69.232  18.991  1.00  0.00    +0.012 C 
ATOM     23  C   UNL     1      20.561  72.375  21.335  1.00  0.00    +0.012 C 
BRANCH   6  24
ATOM     24  O   UNL     1      16.707  67.377  15.023  1.00  0.00    -0.393 OA
ATOM     25  H   UNL     1      17.476  66.899  14.673  1.00  0.00    +0.210 HD
ENDBRANCH   6  24
ENDBRANCH   3   5
ENDBRANCH   1   3
BRANCH   2  26
ATOM     26  C   UNL     1      17.149  76.726  22.424  1.00  0.00    +0.014 C 
BRANCH  26  27
ATOM     27  C   UNL     1      17.088  76.854  23.975  1.00  0.00    -0.011 C 
ATOM     28  C   UNL     1      17.583  75.578  24.667  1.00  0.00    +0.008 C 
ATOM     29  C   UNL     1      15.709  77.234  24.524  1.00  0.00    +0.008 C 
ENDBRANCH  26  27
BRANCH  26  30
ATOM     30  C   UNL     1      16.134  75.683  21.904  1.00  0.00    +0.004 C 
ATOM     31  C   UNL     1      16.368  75.291  20.449  1.00  0.00    +0.004 C 
ENDBRANCH  26  30
ENDBRANCH   2  26
TORSDOF 6
ENDMDL
MODEL 4
REMARK VINA RESULT:    -2.079      1.190      2.395
REMARK INTER + INTRA:          -2.445
REMARK INTER:                  -1.732
REMARK INTRA:                  -0.713
REMARK UNBOUND:                 0.303
REMARK SMILES CC[C@H](/C=C/[C@@H](C)[C@H]1CC[C@H]2C3=CC[C@H]4C[C@@H](O)CC[C@]4(C)[C@H]3CC[C@]12C)C(C)C
REMARK SMILES IDX 5 1 4 2 6 3 7 4 8 5 17 6 16 7 19 8 15 9 20 10 21 11 14 12
REMARK SMILES IDX 23 13 13 14 12 15 24 16 11 17 25 18 26 19 10 20 9 21 22 22
REMARK SMILES IDX 27 23 18 24 3 26 28 27 29 28 30 29 2 30 1 31
REMARK H PARENT 18 25
REMARK INDEX MAP 23 1 24 2 17 3 22 4 6 5 21 6 18 7 20 8 10 9 13 10 5 11 14 12
REMARK INDEX MAP 4 13 16 14 7 15 9 16 3 17 8 18 2 19 11 20 12 21 19 22 15 23
REMARK INDEX MAP 1 24 31 25 25 26 26 27 28 28 29 29 27 30 30 31
ROOT
ATOM      1  C   UNL     1      18.981  66.693  16.619  1.00  0.00    -0.028 C 
ATOM      2  C   UNL     1      19.403  65.510  16.141  1.00  0.00    -0.027 C 
ENDROOT
BRANCH   1   3
ATOM      3  C   UNL     1      19.292  68.028  15.971  1.00  0.00    +0.012 C 
ATOM      4  C   UNL     1      19.085  67.874  14.464  1.00  0.00    +0.012 C 
BRANCH   3   5
ATOM      5  C   UNL     1      18.425  69.148  16.604  1.00  0.00    +0.002 C 
ATOM      6  C   UNL     1      18.776  75.766  22.381  1.00  0.00    +0.114 C 
ATOM      7  C   UNL     1      18.035  74.474  22.720  1.00  0.00    +0.036 C 
ATOM      8  C   UNL     1      20.122  75.500  21.716  1.00  0.00    +0.032 C 
ATOM      9  C   UNL     1      17.901  73.565  21.492  1.00  0.00    +0.002 C 
ATOM     10  C   UNL     1      19.983  74.597  20.490  1.00  0.00    +0.010 C 
ATOM     11  C   UNL     1      19.262  73.255  20.794  1.00  0.00    -0.023 C 
ATOM     12  C   UNL     1      17.145  72.275  21.843  1.00  0.00    +0.031 C 
ATOM     13  C   UNL     1      18.942  72.499  19.441  1.00  0.00    +0.021 C 
ATOM     14  C   UNL     1      17.086  71.322  20.686  1.00  0.00    -0.027 C 
ATOM     15  C   UNL     1      17.858  71.423  19.588  1.00  0.00    -0.067 C 
ATOM     16  C   UNL     1      20.218  71.963  18.734  1.00  0.00    +0.009 C 
ATOM     17  C   UNL     1      17.665  70.577  18.352  1.00  0.00    +0.021 C 
ATOM     18  C   UNL     1      19.940  71.077  17.509  1.00  0.00    +0.008 C 
ATOM     19  C   UNL     1      18.973  69.923  17.842  1.00  0.00    -0.023 C 
ATOM     20  C   UNL     1      16.659  69.428  18.332  1.00  0.00    +0.009 C 
ATOM     21  C   UNL     1      17.052  68.606  17.099  1.00  0.00    +0.005 C 
ATOM     22  C   UNL     1      20.172  72.397  21.713  1.00  0.00    +0.012 C 
ATOM     23  C   UNL     1      19.605  68.960  18.876  1.00  0.00    +0.012 C 
BRANCH   6  24
ATOM     24  O   UNL     1      18.971  76.528  23.567  1.00  0.00    -0.393 OA
ATOM     25  H   UNL     1      19.577  77.264  23.383  1.00  0.00    +0.210 HD
ENDBRANCH   6  24
ENDBRANCH   3   5
ENDBRANCH   1   3
BRANCH   2  26
ATOM     26  C   UNL     1      19.076  64.177  16.780  1.00  0.00    +0.014 C 
BRANCH  26  27
ATOM     27  C   UNL     1      20.069  63.789  17.915  1.00  0.00    -0.011 C 
ATOM     28  C   UNL     1      20.874  62.532  17.557  1.00  0.00    +0.008 C 
ATOM     29  C   UNL     1      19.419  63.607  19.291  1.00  0.00    +0.008 C 
ENDBRANCH  26  27
BRANCH  26  30
ATOM     30  C   UNL     1      18.986  63.068  15.707  1.00  0.00    +0.004 C 
ATOM     31  C   UNL     1      17.807  62.123  15.917  1.00  0.00    +0.004 C 
ENDBRANCH  26  30
ENDBRANCH   2  26
TORSDOF 6
ENDMDL
MODEL 5
REMARK VINA RESULT:    -1.663      3.709      8.846
REMARK INTER + INTRA:          -1.895
REMARK INTER:                  -1.873
REMARK INTRA:                  -0.022
REMARK UNBOUND:                 0.303
REMARK SMILES CC[C@H](/C=C/[C@@H](C)[C@H]1CC[C@H]2C3=CC[C@H]4C[C@@H](O)CC[C@]4(C)[C@H]3CC[C@]12C)C(C)C
REMARK SMILES IDX 5 1 4 2 6 3 7 4 8 5 17 6 16 7 19 8 15 9 20 10 21 11 14 12
REMARK SMILES IDX 23 13 13 14 12 15 24 16 11 17 25 18 26 19 10 20 9 21 22 22
REMARK SMILES IDX 27 23 18 24 3 26 28 27 29 28 30 29 2 30 1 31
REMARK H PARENT 18 25
REMARK INDEX MAP 23 1 24 2 17 3 22 4 6 5 21 6 18 7 20 8 10 9 13 10 5 11 14 12
REMARK INDEX MAP 4 13 16 14 7 15 9 16 3 17 8 18 2 19 11 20 12 21 19 22 15 23
REMARK INDEX MAP 1 24 31 25 25 26 26 27 28 28 29 29 27 30 30 31
ROOT
ATOM      1  C   UNL     1      19.567  75.713  22.285  1.00  0.00    -0.028 C 
ATOM      2  C   UNL     1      19.476  75.052  23.452  1.00  0.00    -0.027 C 
ENDROOT
BRANCH   1   3
ATOM      3  C   UNL     1      20.873  75.973  21.560  1.00  0.00    +0.012 C 
ATOM      4  C   UNL     1      22.011  75.500  22.465  1.00  0.00    +0.012 C 
BRANCH   3   5
ATOM      5  C   UNL     1      20.862  75.284  20.169  1.00  0.00    +0.002 C 
ATOM      6  C   UNL     1      17.222  68.601  15.767  1.00  0.00    +0.114 C 
ATOM      7  C   UNL     1      18.682  68.539  16.210  1.00  0.00    +0.036 C 
ATOM      8  C   UNL     1      16.311  69.143  16.863  1.00  0.00    +0.032 C 
ATOM      9  C   UNL     1      19.165  69.894  16.742  1.00  0.00    +0.002 C 
ATOM     10  C   UNL     1      16.794  70.495  17.388  1.00  0.00    +0.010 C 
ATOM     11  C   UNL     1      18.267  70.473  17.880  1.00  0.00    -0.023 C 
ATOM     12  C   UNL     1      20.638  69.821  17.174  1.00  0.00    +0.031 C 
ATOM     13  C   UNL     1      18.758  71.949  18.170  1.00  0.00    +0.021 C 
ATOM     14  C   UNL     1      21.109  71.104  17.792  1.00  0.00    -0.027 C 
ATOM     15  C   UNL     1      20.287  72.083  18.214  1.00  0.00    -0.067 C 
ATOM     16  C   UNL     1      18.071  72.579  19.412  1.00  0.00    +0.009 C 
ATOM     17  C   UNL     1      20.768  73.443  18.661  1.00  0.00    +0.021 C 
ATOM     18  C   UNL     1      18.643  73.944  19.831  1.00  0.00    +0.008 C 
ATOM     19  C   UNL     1      20.172  73.893  20.018  1.00  0.00    -0.023 C 
ATOM     20  C   UNL     1      22.259  73.742  18.808  1.00  0.00    +0.009 C 
ATOM     21  C   UNL     1      22.303  75.030  19.638  1.00  0.00    +0.005 C 
ATOM     22  C   UNL     1      18.353  69.593  19.155  1.00  0.00    +0.012 C 
ATOM     23  C   UNL     1      20.550  72.946  21.183  1.00  0.00    +0.012 C 
BRANCH   6  24
ATOM     24  O   UNL     1      16.785  67.302  15.381  1.00  0.00    -0.393 OA
ATOM     25  H   UNL     1      16.226  67.370  14.591  1.00  0.00    +0.210 HD
ENDBRANCH   6  24
ENDBRANCH   3   5
ENDBRANCH   1   3
BRANCH   2  26
ATOM     26  C   UNL     1      18.168  74.779  24.166  1.00  0.00    +0.014 C 
BRANCH  26  27
ATOM     27  C   UNL     1      17.876  73.258  24.333  1.00  0.00    -0.011 C 
ATOM     28  C   UNL     1      18.253  72.761  25.734  1.00  0.00    +0.008 C 
ATOM     29  C   UNL     1      18.537  72.366  23.277  1.00  0.00    +0.008 C 
ENDBRANCH  26  27
BRANCH  26  30
ATOM     30  C   UNL     1      17.001  75.502  23.455  1.00  0.00    +0.004 C 
ATOM     31  C   UNL     1      16.765  76.915  23.977  1.00  0.00    +0.004 C 
ENDBRANCH  26  30
ENDBRANCH   2  26
TORSDOF 6
ENDMDL
MODEL 6
REMARK VINA RESULT:    -1.115      3.349      9.346
REMARK INTER + INTRA:          -1.171
REMARK INTER:                  -2.162
REMARK INTRA:                   0.991
REMARK UNBOUND:                 0.303
REMARK SMILES CC[C@H](/C=C/[C@@H](C)[C@H]1CC[C@H]2C3=CC[C@H]4C[C@@H](O)CC[C@]4(C)[C@H]3CC[C@]12C)C(C)C
REMARK SMILES IDX 5 1 4 2 6 3 7 4 8 5 17 6 16 7 19 8 15 9 20 10 21 11 14 12
REMARK SMILES IDX 23 13 13 14 12 15 24 16 11 17 25 18 26 19 10 20 9 21 22 22
REMARK SMILES IDX 27 23 18 24 3 26 28 27 29 28 30 29 2 30 1 31
REMARK H PARENT 18 25
REMARK INDEX MAP 23 1 24 2 17 3 22 4 6 5 21 6 18 7 20 8 10 9 13 10 5 11 14 12
REMARK INDEX MAP 4 13 16 14 7 15 9 16 3 17 8 18 2 19 11 20 12 21 19 22 15 23
REMARK INDEX MAP 1 24 31 25 25 26 26 27 28 28 29 29 27 30 30 31
ROOT
ATOM      1  C   UNL     1      19.746  76.416  21.950  1.00  0.00    -0.028 C 
ATOM      2  C   UNL     1      18.505  76.012  21.631  1.00  0.00    -0.027 C 
ENDROOT
BRANCH   1   3
ATOM      3  C   UNL     1      21.008  75.846  21.330  1.00  0.00    +0.012 C 
ATOM      4  C   UNL     1      22.202  76.442  22.075  1.00  0.00    +0.012 C 
BRANCH   3   5
ATOM      5  C   UNL     1      20.969  74.295  21.361  1.00  0.00    +0.002 C 
ATOM      6  C   UNL     1      19.191  67.296  16.347  1.00  0.00    +0.114 C 
ATOM      7  C   UNL     1      18.233  67.723  17.457  1.00  0.00    +0.036 C 
ATOM      8  C   UNL     1      19.694  68.484  15.533  1.00  0.00    +0.032 C 
ATOM      9  C   UNL     1      18.853  68.808  18.346  1.00  0.00    +0.002 C 
ATOM     10  C   UNL     1      20.314  69.561  16.424  1.00  0.00    +0.010 C 
ATOM     11  C   UNL     1      19.364  70.050  17.551  1.00  0.00    -0.023 C 
ATOM     12  C   UNL     1      17.884  69.220  19.466  1.00  0.00    +0.031 C 
ATOM     13  C   UNL     1      20.159  70.970  18.563  1.00  0.00    +0.021 C 
ATOM     14  C   UNL     1      18.424  70.351  20.291  1.00  0.00    -0.027 C 
ATOM     15  C   UNL     1      19.461  71.125  19.921  1.00  0.00    -0.067 C 
ATOM     16  C   UNL     1      20.564  72.336  17.944  1.00  0.00    +0.009 C 
ATOM     17  C   UNL     1      20.115  72.135  20.833  1.00  0.00    +0.021 C 
ATOM     18  C   UNL     1      21.186  73.326  18.943  1.00  0.00    +0.008 C 
ATOM     19  C   UNL     1      20.293  73.529  20.182  1.00  0.00    -0.023 C 
ATOM     20  C   UNL     1      19.529  72.453  22.206  1.00  0.00    +0.009 C 
ATOM     21  C   UNL     1      20.217  73.761  22.615  1.00  0.00    +0.005 C 
ATOM     22  C   UNL     1      18.180  70.819  16.906  1.00  0.00    +0.012 C 
ATOM     23  C   UNL     1      18.946  74.181  19.785  1.00  0.00    +0.012 C 
BRANCH   6  24
ATOM     24  O   UNL     1      18.539  66.369  15.485  1.00  0.00    -0.393 OA
ATOM     25  H   UNL     1      19.021  66.315  14.645  1.00  0.00    +0.210 HD
ENDBRANCH   6  24
ENDBRANCH   3   5
ENDBRANCH   1   3
BRANCH   2  26
ATOM     26  C   UNL     1      17.246  76.595  22.239  1.00  0.00    +0.014 C 
BRANCH  26  27
ATOM     27  C   UNL     1      17.344  76.768  23.784  1.00  0.00    -0.011 C 
ATOM     28  C   UNL     1      17.827  75.482  24.467  1.00  0.00    +0.008 C 
ATOM     29  C   UNL     1      16.050  77.247  24.450  1.00  0.00    +0.008 C 
ENDBRANCH  26  27
BRANCH  26  30
ATOM     30  C   UNL     1      16.012  75.753  21.843  1.00  0.00    +0.004 C 
ATOM     31  C   UNL     1      16.362  74.545  20.980  1.00  0.00    +0.004 C 
ENDBRANCH  26  30
ENDBRANCH   2  26
TORSDOF 6
ENDMDL
MODEL 7
REMARK VINA RESULT:    -0.743      3.096      4.400
REMARK INTER + INTRA:          -0.680
REMARK INTER:                  -0.771
REMARK INTRA:                   0.091
REMARK UNBOUND:                 0.303
REMARK SMILES CC[C@H](/C=C/[C@@H](C)[C@H]1CC[C@H]2C3=CC[C@H]4C[C@@H](O)CC[C@]4(C)[C@H]3CC[C@]12C)C(C)C
REMARK SMILES IDX 5 1 4 2 6 3 7 4 8 5 17 6 16 7 19 8 15 9 20 10 21 11 14 12
REMARK SMILES IDX 23 13 13 14 12 15 24 16 11 17 25 18 26 19 10 20 9 21 22 22
REMARK SMILES IDX 27 23 18 24 3 26 28 27 29 28 30 29 2 30 1 31
REMARK H PARENT 18 25
REMARK INDEX MAP 23 1 24 2 17 3 22 4 6 5 21 6 18 7 20 8 10 9 13 10 5 11 14 12
REMARK INDEX MAP 4 13 16 14 7 15 9 16 3 17 8 18 2 19 11 20 12 21 19 22 15 23
REMARK INDEX MAP 1 24 31 25 25 26 26 27 28 28 29 29 27 30 30 31
ROOT
ATOM      1  C   UNL     1      20.018  69.506  17.020  1.00  0.00    -0.028 C 
ATOM      2  C   UNL     1      19.073  69.345  17.961  1.00  0.00    -0.027 C 
ENDROOT
BRANCH   1   3
ATOM      3  C   UNL     1      21.051  70.617  17.038  1.00  0.00    +0.012 C 
ATOM      4  C   UNL     1      20.692  71.604  15.927  1.00  0.00    +0.012 C 
BRANCH   3   5
ATOM      5  C   UNL     1      21.117  71.266  18.446  1.00  0.00    +0.002 C 
ATOM      6  C   UNL     1      16.800  76.793  23.746  1.00  0.00    +0.114 C 
ATOM      7  C   UNL     1      18.101  77.219  23.070  1.00  0.00    +0.036 C 
ATOM      8  C   UNL     1      15.869  76.056  22.790  1.00  0.00    +0.032 C 
ATOM      9  C   UNL     1      18.796  76.031  22.392  1.00  0.00    +0.002 C 
ATOM     10  C   UNL     1      16.565  74.870  22.120  1.00  0.00    +0.010 C 
ATOM     11  C   UNL     1      17.880  75.261  21.391  1.00  0.00    -0.023 C 
ATOM     12  C   UNL     1      20.109  76.470  21.725  1.00  0.00    +0.031 C 
ATOM     13  C   UNL     1      18.654  73.956  20.944  1.00  0.00    +0.021 C 
ATOM     14  C   UNL     1      20.760  75.350  20.969  1.00  0.00    -0.027 C 
ATOM     15  C   UNL     1      20.137  74.204  20.638  1.00  0.00    -0.067 C 
ATOM     16  C   UNL     1      17.933  73.189  19.802  1.00  0.00    +0.009 C 
ATOM     17  C   UNL     1      20.847  73.010  20.045  1.00  0.00    +0.021 C 
ATOM     18  C   UNL     1      18.735  72.012  19.221  1.00  0.00    +0.008 C 
ATOM     19  C   UNL     1      20.150  72.442  18.785  1.00  0.00    -0.023 C 
ATOM     20  C   UNL     1      22.316  73.090  19.636  1.00  0.00    +0.009 C 
ATOM     21  C   UNL     1      22.525  71.862  18.742  1.00  0.00    +0.005 C 
ATOM     22  C   UNL     1      17.526  76.149  20.168  1.00  0.00    +0.012 C 
ATOM     23  C   UNL     1      20.078  73.466  17.626  1.00  0.00    +0.012 C 
BRANCH   6  24
ATOM     24  O   UNL     1      16.137  77.940  24.269  1.00  0.00    -0.393 OA
ATOM     25  H   UNL     1      15.243  77.994  23.895  1.00  0.00    +0.210 HD
ENDBRANCH   6  24
ENDBRANCH   3   5
ENDBRANCH   1   3
BRANCH   2  26
ATOM     26  C   UNL     1      18.054  68.224  17.949  1.00  0.00    +0.014 C 
BRANCH  26  27
ATOM     27  C   UNL     1      16.703  68.640  17.295  1.00  0.00    -0.011 C 
ATOM     28  C   UNL     1      16.784  68.612  15.764  1.00  0.00    +0.008 C 
ATOM     29  C   UNL     1      16.170  70.001  17.756  1.00  0.00    +0.008 C 
ENDBRANCH  26  27
BRANCH  26  30
ATOM     30  C   UNL     1      17.843  67.669  19.376  1.00  0.00    +0.004 C 
ATOM     31  C   UNL     1      18.595  68.455  20.444  1.00  0.00    +0.004 C 
ENDBRANCH  26  30
ENDBRANCH   2  26
TORSDOF 6
ENDMDL
MODEL 8
REMARK VINA RESULT:    -0.388      2.726      4.176
REMARK INTER + INTRA:          -0.211
REMARK INTER:                  -1.132
REMARK INTRA:                   0.922
REMARK UNBOUND:                 0.303
REMARK SMILES CC[C@H](/C=C/[C@@H](C)[C@H]1CC[C@H]2C3=CC[C@H]4C[C@@H](O)CC[C@]4(C)[C@H]3CC[C@]12C)C(C)C
REMARK SMILES IDX 5 1 4 2 6 3 7 4 8 5 17 6 16 7 19 8 15 9 20 10 21 11 14 12
REMARK SMILES IDX 23 13 13 14 12 15 24 16 11 17 25 18 26 19 10 20 9 21 22 22
REMARK SMILES IDX 27 23 18 24 3 26 28 27 29 28 30 29 2 30 1 31
REMARK H PARENT 18 25
REMARK INDEX MAP 23 1 24 2 17 3 22 4 6 5 21 6 18 7 20 8 10 9 13 10 5 11 14 12
REMARK INDEX MAP 4 13 16 14 7 15 9 16 3 17 8 18 2 19 11 20 12 21 19 22 15 23
REMARK INDEX MAP 1 24 31 25 25 26 26 27 28 28 29 29 27 30 30 31
ROOT
ATOM      1  C   UNL     1      19.698  69.415  17.131  1.00  0.00    -0.028 C 
ATOM      2  C   UNL     1      18.732  69.820  16.290  1.00  0.00    -0.027 C 
ENDROOT
BRANCH   1   3
ATOM      3  C   UNL     1      21.041  70.105  17.273  1.00  0.00    +0.012 C 
ATOM      4  C   UNL     1      21.220  71.027  16.066  1.00  0.00    +0.012 C 
BRANCH   3   5
ATOM      5  C   UNL     1      21.125  70.844  18.634  1.00  0.00    +0.002 C 
ATOM      6  C   UNL     1      16.902  76.746  23.596  1.00  0.00    +0.114 C 
ATOM      7  C   UNL     1      18.201  77.115  22.883  1.00  0.00    +0.036 C 
ATOM      8  C   UNL     1      15.956  75.957  22.697  1.00  0.00    +0.032 C 
ATOM      9  C   UNL     1      18.880  75.879  22.279  1.00  0.00    +0.002 C 
ATOM     10  C   UNL     1      16.636  74.724  22.100  1.00  0.00    +0.010 C 
ATOM     11  C   UNL     1      17.949  75.053  21.338  1.00  0.00    -0.023 C 
ATOM     12  C   UNL     1      20.191  76.261  21.575  1.00  0.00    +0.031 C 
ATOM     13  C   UNL     1      18.707  73.715  20.971  1.00  0.00    +0.021 C 
ATOM     14  C   UNL     1      20.826  75.088  20.888  1.00  0.00    -0.027 C 
ATOM     15  C   UNL     1      20.190  73.928  20.638  1.00  0.00    -0.067 C 
ATOM     16  C   UNL     1      17.970  72.882  19.886  1.00  0.00    +0.009 C 
ATOM     17  C   UNL     1      20.884  72.691  20.118  1.00  0.00    +0.021 C 
ATOM     18  C   UNL     1      18.756  71.662  19.378  1.00  0.00    +0.008 C 
ATOM     19  C   UNL     1      20.171  72.049  18.903  1.00  0.00    -0.023 C 
ATOM     20  C   UNL     1      22.351  72.731  19.693  1.00  0.00    +0.009 C 
ATOM     21  C   UNL     1      22.541  71.445  18.880  1.00  0.00    +0.005 C 
ATOM     22  C   UNL     1      17.593  75.863  20.062  1.00  0.00    +0.012 C 
ATOM     23  C   UNL     1      20.099  72.995  17.680  1.00  0.00    +0.012 C 
BRANCH   6  24
ATOM     24  O   UNL     1      16.254  77.931  24.047  1.00  0.00    -0.393 OA
ATOM     25  H   UNL     1      16.834  78.401  24.667  1.00  0.00    +0.210 HD
ENDBRANCH   6  24
ENDBRANCH   3   5
ENDBRANCH   1   3
BRANCH   2  26
ATOM     26  C   UNL     1      17.384  69.139  16.164  1.00  0.00    +0.014 C 
BRANCH  26  27
ATOM     27  C   UNL     1      16.684  68.922  17.539  1.00  0.00    -0.011 C 
ATOM     28  C   UNL     1      15.882  70.157  17.966  1.00  0.00    +0.008 C 
ATOM     29  C   UNL     1      17.629  68.506  18.671  1.00  0.00    +0.008 C 
ENDBRANCH  26  27
BRANCH  26  30
ATOM     30  C   UNL     1      17.519  67.812  15.383  1.00  0.00    +0.004 C 
ATOM     31  C   UNL     1      18.927  67.229  15.428  1.00  0.00    +0.004 C 
ENDBRANCH  26  30
ENDBRANCH   2  26
TORSDOF 6
ENDMDL
MODEL 9
REMARK VINA RESULT:    -0.360      2.435      4.606
REMARK INTER + INTRA:          -0.173
REMARK INTER:                  -0.358
REMARK INTRA:                   0.185
REMARK UNBOUND:                 0.303
REMARK SMILES CC[C@H](/C=C/[C@@H](C)[C@H]1CC[C@H]2C3=CC[C@H]4C[C@@H](O)CC[C@]4(C)[C@H]3CC[C@]12C)C(C)C
REMARK SMILES IDX 5 1 4 2 6 3 7 4 8 5 17 6 16 7 19 8 15 9 20 10 21 11 14 12
REMARK SMILES IDX 23 13 13 14 12 15 24 16 11 17 25 18 26 19 10 20 9 21 22 22
REMARK SMILES IDX 27 23 18 24 3 26 28 27 29 28 30 29 2 30 1 31
REMARK H PARENT 18 25
REMARK INDEX MAP 23 1 24 2 17 3 22 4 6 5 21 6 18 7 20 8 10 9 13 10 5 11 14 12
REMARK INDEX MAP 4 13 16 14 7 15 9 16 3 17 8 18 2 19 11 20 12 21 19 22 15 23
REMARK INDEX MAP 1 24 31 25 25 26 26 27 28 28 29 29 27 30 30 31
ROOT
ATOM      1  C   UNL     1      20.903  69.833  17.656  1.00  0.00    -0.028 C 
ATOM      2  C   UNL     1      19.611  69.627  17.961  1.00  0.00    -0.027 C 
ENDROOT
BRANCH   1   3
ATOM      3  C   UNL     1      21.718  71.006  18.168  1.00  0.00    +0.012 C 
ATOM      4  C   UNL     1      22.937  71.157  17.259  1.00  0.00    +0.012 C 
BRANCH   3   5
ATOM      5  C   UNL     1      20.837  72.281  18.241  1.00  0.00    +0.002 C 
ATOM      6  C   UNL     1      16.834  77.632  23.952  1.00  0.00    +0.114 C 
ATOM      7  C   UNL     1      16.025  76.660  23.097  1.00  0.00    +0.036 C 
ATOM      8  C   UNL     1      18.082  76.981  24.540  1.00  0.00    +0.032 C 
ATOM      9  C   UNL     1      16.895  76.006  22.017  1.00  0.00    +0.002 C 
ATOM     10  C   UNL     1      18.948  76.334  23.458  1.00  0.00    +0.010 C 
ATOM     11  C   UNL     1      18.174  75.312  22.581  1.00  0.00    -0.023 C 
ATOM     12  C   UNL     1      16.067  75.038  21.156  1.00  0.00    +0.031 C 
ATOM     13  C   UNL     1      19.065  74.880  21.347  1.00  0.00    +0.021 C 
ATOM     14  C   UNL     1      16.912  74.308  20.155  1.00  0.00    -0.027 C 
ATOM     15  C   UNL     1      18.256  74.252  20.204  1.00  0.00    -0.067 C 
ATOM     16  C   UNL     1      20.283  74.009  21.760  1.00  0.00    +0.009 C 
ATOM     17  C   UNL     1      19.108  73.677  19.096  1.00  0.00    +0.021 C 
ATOM     18  C   UNL     1      21.077  73.426  20.578  1.00  0.00    +0.008 C 
ATOM     19  C   UNL     1      20.166  72.663  19.596  1.00  0.00    -0.023 C 
ATOM     20  C   UNL     1      18.473  72.973  17.899  1.00  0.00    +0.009 C 
ATOM     21  C   UNL     1      19.636  72.212  17.252  1.00  0.00    +0.005 C 
ATOM     22  C   UNL     1      17.798  74.087  23.457  1.00  0.00    +0.012 C 
ATOM     23  C   UNL     1      19.535  71.427  20.281  1.00  0.00    +0.012 C 
BRANCH   6  24
ATOM     24  O   UNL     1      16.018  78.135  25.005  1.00  0.00    -0.393 OA
ATOM     25  H   UNL     1      15.528  77.402  25.412  1.00  0.00    +0.210 HD
ENDBRANCH   6  24
ENDBRANCH   3   5
ENDBRANCH   1   3
BRANCH   2  26
ATOM     26  C   UNL     1      18.805  68.445  17.463  1.00  0.00    +0.014 C 
BRANCH  26  27
ATOM     27  C   UNL     1      19.048  68.140  15.954  1.00  0.00    -0.011 C 
ATOM     28  C   UNL     1      17.888  68.638  15.083  1.00  0.00    +0.008 C 
ATOM     29  C   UNL     1      19.326  66.666  15.644  1.00  0.00    +0.008 C 
ENDBRANCH  26  27
BRANCH  26  30
ATOM     30  C   UNL     1      17.303  68.649  17.762  1.00  0.00    +0.004 C 
ATOM     31  C   UNL     1      17.028  69.845  18.667  1.00  0.00    +0.004 C 
ENDBRANCH  26  30
ENDBRANCH   2  26
TORSDOF 6
ENDMDL
MODEL 10
REMARK VINA RESULT:     1.614      3.798      9.382
REMARK INTER + INTRA:           2.435
REMARK INTER:                   2.113
REMARK INTRA:                   0.322
REMARK UNBOUND:                 0.303
REMARK SMILES CC[C@H](/C=C/[C@@H](C)[C@H]1CC[C@H]2C3=CC[C@H]4C[C@@H](O)CC[C@]4(C)[C@H]3CC[C@]12C)C(C)C
REMARK SMILES IDX 5 1 4 2 6 3 7 4 8 5 17 6 16 7 19 8 15 9 20 10 21 11 14 12
REMARK SMILES IDX 23 13 13 14 12 15 24 16 11 17 25 18 26 19 10 20 9 21 22 22
REMARK SMILES IDX 27 23 18 24 3 26 28 27 29 28 30 29 2 30 1 31
REMARK H PARENT 18 25
REMARK INDEX MAP 23 1 24 2 17 3 22 4 6 5 21 6 18 7 20 8 10 9 13 10 5 11 14 12
REMARK INDEX MAP 4 13 16 14 7 15 9 16 3 17 8 18 2 19 11 20 12 21 19 22 15 23
REMARK INDEX MAP 1 24 31 25 25 26 26 27 28 28 29 29 27 30 30 31
ROOT
ATOM      1  C   UNL     1      19.369  73.756  23.289  1.00  0.00    -0.028 C 
ATOM      2  C   UNL     1      18.877  74.960  23.627  1.00  0.00    -0.027 C 
ENDROOT
BRANCH   1   3
ATOM      3  C   UNL     1      19.249  72.518  24.156  1.00  0.00    +0.012 C 
ATOM      4  C   UNL     1      18.370  72.873  25.355  1.00  0.00    +0.012 C 
BRANCH   3   5
ATOM      5  C   UNL     1      18.706  71.328  23.321  1.00  0.00    +0.002 C 
ATOM      6  C   UNL     1      18.383  68.183  15.118  1.00  0.00    +0.114 C 
ATOM      7  C   UNL     1      17.142  68.787  15.770  1.00  0.00    +0.036 C 
ATOM      8  C   UNL     1      19.633  69.019  15.373  1.00  0.00    +0.032 C 
ATOM      9  C   UNL     1      17.365  69.048  17.265  1.00  0.00    +0.002 C 
ATOM     10  C   UNL     1      19.852  69.274  16.865  1.00  0.00    +0.010 C 
ATOM     11  C   UNL     1      18.625  69.918  17.566  1.00  0.00    -0.023 C 
ATOM     12  C   UNL     1      16.105  69.645  17.912  1.00  0.00    +0.031 C 
ATOM     13  C   UNL     1      18.841  69.918  19.133  1.00  0.00    +0.021 C 
ATOM     14  C   UNL     1      16.325  70.004  19.351  1.00  0.00    -0.027 C 
ATOM     15  C   UNL     1      17.539  70.100  19.926  1.00  0.00    -0.067 C 
ATOM     16  C   UNL     1      19.954  70.901  19.588  1.00  0.00    +0.009 C 
ATOM     17  C   UNL     1      17.747  70.277  21.411  1.00  0.00    +0.021 C 
ATOM     18  C   UNL     1      20.078  71.059  21.112  1.00  0.00    +0.008 C 
ATOM     19  C   UNL     1      18.729  71.421  21.764  1.00  0.00    -0.023 C 
ATOM     20  C   UNL     1      16.567  70.516  22.350  1.00  0.00    +0.009 C 
ATOM     21  C   UNL     1      17.212  71.031  23.641  1.00  0.00    +0.005 C 
ATOM     22  C   UNL     1      18.443  71.361  17.025  1.00  0.00    +0.012 C 
ATOM     23  C   UNL     1      18.238  72.805  21.274  1.00  0.00    +0.012 C 
BRANCH   6  24
ATOM     24  O   UNL     1      18.172  68.056  13.716  1.00  0.00    -0.393 OA
ATOM     25  H   UNL     1      17.623  67.275  13.541  1.00  0.00    +0.210 HD
ENDBRANCH   6  24
ENDBRANCH   3   5
ENDBRANCH   1   3
BRANCH   2  26
ATOM     26  C   UNL     1      18.983  76.191  22.750  1.00  0.00    +0.014 C 
BRANCH  26  27
ATOM     27  C   UNL     1      17.595  76.791  22.378  1.00  0.00    -0.011 C 
ATOM     28  C   UNL     1      16.812  77.221  23.626  1.00  0.00    +0.008 C 
ATOM     29  C   UNL     1      16.721  75.876  21.514  1.00  0.00    +0.008 C 
ENDBRANCH  26  27
BRANCH  26  30
ATOM     30  C   UNL     1      19.823  75.887  21.488  1.00  0.00    +0.004 C 
ATOM     31  C   UNL     1      21.312  76.149  21.682  1.00  0.00    +0.004 C 
ENDBRANCH  26  30
ENDBRANCH   2  26
TORSDOF 6
ENDMDL
MODEL 11
REMARK VINA RESULT:     1.677      4.795     11.796
REMARK INTER + INTRA:           2.519
REMARK INTER:                   2.610
REMARK INTRA:                  -0.091
REMARK UNBOUND:                 0.303
REMARK SMILES CC[C@H](/C=C/[C@@H](C)[C@H]1CC[C@H]2C3=CC[C@H]4C[C@@H](O)CC[C@]4(C)[C@H]3CC[C@]12C)C(C)C
REMARK SMILES IDX 5 1 4 2 6 3 7 4 8 5 17 6 16 7 19 8 15 9 20 10 21 11 14 12
REMARK SMILES IDX 23 13 13 14 12 15 24 16 11 17 25 18 26 19 10 20 9 21 22 22
REMARK SMILES IDX 27 23 18 24 3 26 28 27 29 28 30 29 2 30 1 31
REMARK H PARENT 18 25
REMARK INDEX MAP 23 1 24 2 17 3 22 4 6 5 21 6 18 7 20 8 10 9 13 10 5 11 14 12
REMARK INDEX MAP 4 13 16 14 7 15 9 16 3 17 8 18 2 19 11 20 12 21 19 22 15 23
REMARK INDEX MAP 1 24 31 25 25 26 26 27 28 28 29 29 27 30 30 31
ROOT
ATOM      1  C   UNL     1      17.122  78.987  23.178  1.00  0.00    -0.028 C 
ATOM      2  C   UNL     1      16.674  79.868  24.088  1.00  0.00    -0.027 C 
ENDROOT
BRANCH   1   3
ATOM      3  C   UNL     1      17.385  77.523  23.475  1.00  0.00    +0.012 C 
ATOM      4  C   UNL     1      16.043  76.865  23.796  1.00  0.00    +0.012 C 
BRANCH   3   5
ATOM      5  C   UNL     1      18.131  76.860  22.287  1.00  0.00    +0.002 C 
ATOM      6  C   UNL     1      18.222  69.595  17.337  1.00  0.00    +0.114 C 
ATOM      7  C   UNL     1      19.310  69.841  18.380  1.00  0.00    +0.036 C 
ATOM      8  C   UNL     1      16.830  69.921  17.869  1.00  0.00    +0.032 C 
ATOM      9  C   UNL     1      19.230  71.263  18.949  1.00  0.00    +0.002 C 
ATOM     10  C   UNL     1      16.755  71.341  18.432  1.00  0.00    +0.010 C 
ATOM     11  C   UNL     1      17.825  71.628  19.521  1.00  0.00    -0.023 C 
ATOM     12  C   UNL     1      20.336  71.501  19.989  1.00  0.00    +0.031 C 
ATOM     13  C   UNL     1      17.837  73.172  19.867  1.00  0.00    +0.021 C 
ATOM     14  C   UNL     1      20.222  72.849  20.636  1.00  0.00    -0.027 C 
ATOM     15  C   UNL     1      19.126  73.627  20.567  1.00  0.00    -0.067 C 
ATOM     16  C   UNL     1      16.559  73.630  20.621  1.00  0.00    +0.009 C 
ATOM     17  C   UNL     1      19.082  75.054  21.059  1.00  0.00    +0.021 C 
ATOM     18  C   UNL     1      16.606  75.082  21.127  1.00  0.00    +0.008 C 
ATOM     19  C   UNL     1      17.867  75.355  21.970  1.00  0.00    -0.023 C 
ATOM     20  C   UNL     1      20.259  75.662  21.819  1.00  0.00    +0.009 C 
ATOM     21  C   UNL     1      19.677  76.923  22.467  1.00  0.00    +0.005 C 
ATOM     22  C   UNL     1      17.499  70.775  20.777  1.00  0.00    +0.012 C 
ATOM     23  C   UNL     1      17.859  74.500  23.261  1.00  0.00    +0.012 C 
BRANCH   6  24
ATOM     24  O   UNL     1      18.265  68.237  16.914  1.00  0.00    -0.393 OA
ATOM     25  H   UNL     1      18.253  68.199  15.944  1.00  0.00    +0.210 HD
ENDBRANCH   6  24
ENDBRANCH   3   5
ENDBRANCH   1   3
BRANCH   2  26
ATOM     26  C   UNL     1      16.395  81.326  23.784  1.00  0.00    +0.014 C 
BRANCH  26  27
ATOM     27  C   UNL     1      17.693  82.177  23.655  1.00  0.00    -0.011 C 
ATOM     28  C   UNL     1      18.026  82.902  24.965  1.00  0.00    +0.008 C 
ATOM     29  C   UNL     1      17.677  83.184  22.501  1.00  0.00    +0.008 C 
ENDBRANCH  26  27
BRANCH  26  30
ATOM     30  C   UNL     1      15.431  81.924  24.834  1.00  0.00    +0.004 C 
ATOM     31  C   UNL     1      14.466  82.949  24.248  1.00  0.00    +0.004 C 
ENDBRANCH  26  30
ENDBRANCH   2  26
TORSDOF 6
ENDMDL
MODEL 12
REMARK VINA RESULT:     2.204      1.846      4.386
REMARK INTER + INTRA:           3.215
REMARK INTER:                   3.540
REMARK INTRA:                  -0.325
REMARK UNBOUND:                 0.303
REMARK SMILES CC[C@H](/C=C/[C@@H](C)[C@H]1CC[C@H]2C3=CC[C@H]4C[C@@H](O)CC[C@]4(C)[C@H]3CC[C@]12C)C(C)C
REMARK SMILES IDX 5 1 4 2 6 3 7 4 8 5 17 6 16 7 19 8 15 9 20 10 21 11 14 12
REMARK SMILES IDX 23 13 13 14 12 15 24 16 11 17 25 18 26 19 10 20 9 21 22 22
REMARK SMILES IDX 27 23 18 24 3 26 28 27 29 28 30 29 2 30 1 31
REMARK H PARENT 18 25
REMARK INDEX MAP 23 1 24 2 17 3 22 4 6 5 21 6 18 7 20 8 10 9 13 10 5 11 14 12
REMARK INDEX MAP 4 13 16 14 7 15 9 16 3 17 8 18 2 19 11 20 12 21 19 22 15 23
REMARK INDEX MAP 1 24 31 25 25 26 26 27 28 28 29 29 27 30 30 31
ROOT
ATOM      1  C   UNL     1      20.508  69.705  16.737  1.00  0.00    -0.028 C 
ATOM      2  C   UNL     1      19.495  68.856  16.976  1.00  0.00    -0.027 C 
ENDROOT
BRANCH   1   3
ATOM      3  C   UNL     1      20.914  70.826  17.674  1.00  0.00    +0.012 C 
ATOM      4  C   UNL     1      21.051  72.101  16.843  1.00  0.00    +0.012 C 
BRANCH   3   5
ATOM      5  C   UNL     1      19.893  70.951  18.836  1.00  0.00    +0.002 C 
ATOM      6  C   UNL     1      16.297  76.812  24.313  1.00  0.00    +0.114 C 
ATOM      7  C   UNL     1      17.326  75.803  24.818  1.00  0.00    +0.036 C 
ATOM      8  C   UNL     1      16.705  77.433  22.981  1.00  0.00    +0.032 C 
ATOM      9  C   UNL     1      17.634  74.738  23.758  1.00  0.00    +0.002 C 
ATOM     10  C   UNL     1      17.008  76.367  21.927  1.00  0.00    +0.010 C 
ATOM     11  C   UNL     1      18.074  75.334  22.385  1.00  0.00    -0.023 C 
ATOM     12  C   UNL     1      18.661  73.723  24.282  1.00  0.00    +0.031 C 
ATOM     13  C   UNL     1      18.145  74.141  21.348  1.00  0.00    +0.021 C 
ATOM     14  C   UNL     1      19.057  72.727  23.232  1.00  0.00    -0.027 C 
ATOM     15  C   UNL     1      18.807  72.880  21.918  1.00  0.00    -0.067 C 
ATOM     16  C   UNL     1      18.753  74.565  19.983  1.00  0.00    +0.009 C 
ATOM     17  C   UNL     1      19.040  71.795  20.893  1.00  0.00    +0.021 C 
ATOM     18  C   UNL     1      18.998  73.401  19.008  1.00  0.00    +0.008 C 
ATOM     19  C   UNL     1      19.833  72.277  19.654  1.00  0.00    -0.023 C 
ATOM     20  C   UNL     1      19.731  70.487  21.273  1.00  0.00    +0.009 C 
ATOM     21  C   UNL     1      20.124  69.865  19.928  1.00  0.00    +0.005 C 
ATOM     22  C   UNL     1      19.444  76.053  22.506  1.00  0.00    +0.012 C 
ATOM     23  C   UNL     1      21.252  72.785  20.010  1.00  0.00    +0.012 C 
BRANCH   6  24
ATOM     24  O   UNL     1      16.120  77.839  25.284  1.00  0.00    -0.393 OA
ATOM     25  H   UNL     1      15.665  77.475  26.060  1.00  0.00    +0.210 HD
ENDBRANCH   6  24
ENDBRANCH   3   5
ENDBRANCH   1   3
BRANCH   2  26
ATOM     26  C   UNL     1      19.103  67.727  16.046  1.00  0.00    +0.014 C 
BRANCH  26  27
ATOM     27  C   UNL     1      17.700  67.932  15.401  1.00  0.00    -0.011 C 
ATOM     28  C   UNL     1      17.807  68.539  13.996  1.00  0.00    +0.008 C 
ATOM     29  C   UNL     1      16.730  68.763  16.247  1.00  0.00    +0.008 C 
ENDBRANCH  26  27
BRANCH  26  30
ATOM     30  C   UNL     1      19.195  66.367  16.775  1.00  0.00    +0.004 C 
ATOM     31  C   UNL     1      19.521  65.206  15.842  1.00  0.00    +0.004 C 
ENDBRANCH  26  30
ENDBRANCH   2  26
TORSDOF 6
ENDMDL
