REMARK SMILES C[C@]12CCC(=O)C=C1CC[C@@H]1[C@@H]2[C@@H]2C[C@]3(C(=O)O2)[C@@H](C(=O)CO)CC[C@@H]13
REMARK SMILES IDX 20 1 21 2 19 3 26 4 25 5 15 6 11 7 24 8 14 9 16 10 12 11
REMARK SMILES IDX 10 12 13 13 17 14 18 15 2 16 9 17 8 18 3 19 7 20 4 21 5 22
REMARK SMILES IDX 6 23 1 24 22 25 23 26
REMARK H PARENT 23 27
REMARK INDEX MAP 11 1 25 2 10 3 1 4 13 5 14 6 15 7 9 8 2 9 3 10 16 11 24 12
REMARK INDEX MAP 17 13 19 14 18 15 4 16 23 17 5 18 22 19 6 20 21 21 7 22 20 23
REMARK INDEX MAP 8 24 12 25 26 26 52 27
ROOT
ATOM      1  C   UNL     1      18.475  76.136  23.204  1.00  0.00    +0.162 C 
ATOM      2  O   UNL     1      19.135  76.362  24.189  1.00  0.00    -0.297 OA
ENDROOT
BRANCH   1   3
ATOM      3  C   UNL     1      19.166  75.579  21.905  1.00  0.00    +0.076 C 
ATOM      4  C   UNL     1      19.870  73.985  20.297  1.00  0.00    +0.011 C 
ATOM      5  C   UNL     1      21.168  74.694  20.790  1.00  0.00    +0.006 C 
ATOM      6  C   UNL     1      18.869  74.095  21.527  1.00  0.00    +0.084 C 
ATOM      7  C   UNL     1      20.050  72.500  19.851  1.00  0.00    +0.001 C 
ATOM      8  C   UNL     1      20.713  75.707  21.868  1.00  0.00    +0.013 C 
ATOM      9  C   UNL     1      17.455  73.769  20.930  1.00  0.00    +0.065 C 
ATOM     10  C   UNL     1      18.989  72.927  22.579  1.00  0.00    +0.313 C 
ATOM     11  C   UNL     1      18.626  71.960  19.514  1.00  0.00    +0.044 C 
ATOM     12  C   UNL     1      20.991  72.289  18.604  1.00  0.00    +0.009 C 
ATOM     13  C   UNL     1      17.631  72.243  20.748  1.00  0.00    +0.182 C 
ATOM     14  O   UNL     1      18.389  73.221  23.840  1.00  0.00    -0.252 OA
ATOM     15  O   UNL     1      18.195  71.811  22.014  1.00  0.00    -0.462 OA
ATOM     16  C   UNL     1      18.670  70.424  19.057  1.00  0.00    -0.004 C 
ATOM     17  C   UNL     1      21.114  70.800  18.162  1.00  0.00    +0.032 C 
ATOM     18  C   UNL     1      19.727  70.149  17.940  1.00  0.00    -0.060 C 
ATOM     19  C   UNL     1      17.254  70.101  18.459  1.00  0.00    +0.020 C 
ATOM     20  C   UNL     1      19.465  69.355  16.863  1.00  0.00    +0.047 C 
ATOM     21  C   UNL     1      17.116  68.684  17.875  1.00  0.00    +0.081 C 
ATOM     22  C   UNL     1      18.097  68.667  16.674  1.00  0.00    +0.155 C 
ATOM     23  O   UNL     1      17.773  68.102  15.636  1.00  0.00    -0.295 OA
ATOM     24  C   UNL     1      19.019  69.461  20.252  1.00  0.00    +0.016 C 
ENDBRANCH   1   3
BRANCH   1  25
ATOM     25  C   UNL     1      16.964  76.373  23.163  1.00  0.00    +0.231 C 
BRANCH  25  26
ATOM     26  O   UNL     1      16.471  76.453  24.503  1.00  0.00    -0.389 OA
ATOM     27  H   UNL     1      16.664  75.624  24.968  1.00  0.00    +0.211 HD
ENDBRANCH  25  26
ENDBRANCH   1  25
TORSDOF 3
