MODEL 1
REMARK VINA RESULT:   -12.112      0.000      0.000
REMARK INTER + INTRA:         -14.073
REMARK INTER:                 -13.882
REMARK INTRA:                  -0.191
REMARK UNBOUND:                -0.191
REMARK SMILES C[C@]12CCC(=O)C=C1CC[C@@H]1[C@@H]2[C@@H]2C[C@]3(C(=O)O2)[C@@H](C(=O)CO)CC[C@@H]13
REMARK SMILES IDX 20 1 21 2 19 3 26 4 25 5 15 6 11 7 24 8 14 9 16 10 12 11
REMARK SMILES IDX 10 12 13 13 17 14 18 15 2 16 9 17 8 18 3 19 7 20 4 21 5 22
REMARK SMILES IDX 6 23 1 24 22 25 23 26
REMARK H PARENT 23 27
REMARK INDEX MAP 11 1 25 2 10 3 1 4 13 5 14 6 15 7 9 8 2 9 3 10 16 11 24 12
REMARK INDEX MAP 17 13 19 14 18 15 4 16 23 17 5 18 22 19 6 20 21 21 7 22 20 23
REMARK INDEX MAP 8 24 12 25 26 26 52 27
ROOT
ATOM      1  C   UNL     1      18.736  76.001  23.146  1.00  0.00    +0.162 C 
ATOM      2  O   UNL     1      19.389  76.101  24.156  1.00  0.00    -0.297 OA
ENDROOT
BRANCH   1   3
ATOM      3  C   UNL     1      19.400  75.450  21.831  1.00  0.00    +0.076 C 
ATOM      4  C   UNL     1      20.024  73.872  20.175  1.00  0.00    +0.011 C 
ATOM      5  C   UNL     1      21.356  74.498  20.690  1.00  0.00    +0.006 C 
ATOM      6  C   UNL     1      19.028  73.996  21.407  1.00  0.00    +0.084 C 
ATOM      7  C   UNL     1      20.129  72.394  19.683  1.00  0.00    +0.001 C 
ATOM      8  C   UNL     1      20.951  75.499  21.799  1.00  0.00    +0.013 C 
ATOM      9  C   UNL     1      17.600  73.761  20.799  1.00  0.00    +0.065 C 
ATOM     10  C   UNL     1      19.085  72.791  22.422  1.00  0.00    +0.313 C 
ATOM     11  C   UNL     1      18.679  71.939  19.329  1.00  0.00    +0.044 C 
ATOM     12  C   UNL     1      21.060  72.174  18.430  1.00  0.00    +0.009 C 
ATOM     13  C   UNL     1      17.698  72.235  20.570  1.00  0.00    +0.182 C 
ATOM     14  O   UNL     1      18.499  73.076  23.691  1.00  0.00    -0.252 OA
ATOM     15  O   UNL     1      18.236  71.735  21.823  1.00  0.00    -0.462 OA
ATOM     16  C   UNL     1      18.645  70.418  18.824  1.00  0.00    -0.004 C 
ATOM     17  C   UNL     1      21.107  70.695  17.943  1.00  0.00    +0.032 C 
ATOM     18  C   UNL     1      19.689  70.123  17.700  1.00  0.00    -0.060 C 
ATOM     19  C   UNL     1      17.216  70.187  18.216  1.00  0.00    +0.020 C 
ATOM     20  C   UNL     1      19.389  69.378  16.599  1.00  0.00    +0.047 C 
ATOM     21  C   UNL     1      17.006  68.797  17.588  1.00  0.00    +0.081 C 
ATOM     22  C   UNL     1      17.988  68.767  16.388  1.00  0.00    +0.155 C 
ATOM     23  O   UNL     1      17.637  68.252  15.333  1.00  0.00    -0.295 OA
ATOM     24  C   UNL     1      18.942  69.402  19.989  1.00  0.00    +0.016 C 
ENDBRANCH   1   3
BRANCH   1  25
ATOM     25  C   UNL     1      17.259  76.397  23.088  1.00  0.00    +0.231 C 
BRANCH  25  26
ATOM     26  O   UNL     1      16.648  76.092  24.345  1.00  0.00    -0.389 OA
ATOM     27  H   UNL     1      17.320  75.756  24.957  1.00  0.00    +0.211 HD
ENDBRANCH  25  26
ENDBRANCH   1  25
TORSDOF 3
ENDMDL
MODEL 2
REMARK VINA RESULT:   -11.668      0.335      0.335
REMARK INTER + INTRA:         -13.564
REMARK INTER:                 -13.431
REMARK INTRA:                  -0.133
REMARK UNBOUND:                -0.191
REMARK SMILES C[C@]12CCC(=O)C=C1CC[C@@H]1[C@@H]2[C@@H]2C[C@]3(C(=O)O2)[C@@H](C(=O)CO)CC[C@@H]13
REMARK SMILES IDX 20 1 21 2 19 3 26 4 25 5 15 6 11 7 24 8 14 9 16 10 12 11
REMARK SMILES IDX 10 12 13 13 17 14 18 15 2 16 9 17 8 18 3 19 7 20 4 21 5 22
REMARK SMILES IDX 6 23 1 24 22 25 23 26
REMARK H PARENT 23 27
REMARK INDEX MAP 11 1 25 2 10 3 1 4 13 5 14 6 15 7 9 8 2 9 3 10 16 11 24 12
REMARK INDEX MAP 17 13 19 14 18 15 4 16 23 17 5 18 22 19 6 20 21 21 7 22 20 23
REMARK INDEX MAP 8 24 12 25 26 26 52 27
ROOT
ATOM      1  C   UNL     1      18.641  76.023  23.148  1.00  0.00    +0.162 C 
ATOM      2  O   UNL     1      19.293  76.216  24.146  1.00  0.00    -0.297 OA
ENDROOT
BRANCH   1   3
ATOM      3  C   UNL     1      19.335  75.466  21.851  1.00  0.00    +0.076 C 
ATOM      4  C   UNL     1      19.982  73.885  20.206  1.00  0.00    +0.011 C 
ATOM      5  C   UNL     1      21.308  74.484  20.765  1.00  0.00    +0.006 C 
ATOM      6  C   UNL     1      18.950  74.020  21.408  1.00  0.00    +0.084 C 
ATOM      7  C   UNL     1      20.075  72.408  19.710  1.00  0.00    +0.001 C 
ATOM      8  C   UNL     1      20.888  75.488  21.866  1.00  0.00    +0.013 C 
ATOM      9  C   UNL     1      17.538  73.814  20.757  1.00  0.00    +0.065 C 
ATOM     10  C   UNL     1      18.956  72.810  22.419  1.00  0.00    +0.313 C 
ATOM     11  C   UNL     1      18.629  71.980  19.310  1.00  0.00    +0.044 C 
ATOM     12  C   UNL     1      21.040  72.177  18.486  1.00  0.00    +0.009 C 
ATOM     13  C   UNL     1      17.616  72.287  20.523  1.00  0.00    +0.182 C 
ATOM     14  O   UNL     1      18.336  73.100  23.671  1.00  0.00    -0.252 OA
ATOM     15  O   UNL     1      18.107  71.773  21.788  1.00  0.00    -0.462 OA
ATOM     16  C   UNL     1      18.584  70.462  18.797  1.00  0.00    -0.004 C 
ATOM     17  C   UNL     1      21.076  70.699  17.992  1.00  0.00    +0.032 C 
ATOM     18  C   UNL     1      19.656  70.154  17.703  1.00  0.00    -0.060 C 
ATOM     19  C   UNL     1      17.169  70.259  18.144  1.00  0.00    +0.020 C 
ATOM     20  C   UNL     1      19.376  69.419  16.590  1.00  0.00    +0.047 C 
ATOM     21  C   UNL     1      16.955  68.877  17.503  1.00  0.00    +0.081 C 
ATOM     22  C   UNL     1      17.971  68.834  16.333  1.00  0.00    +0.155 C 
ATOM     23  O   UNL     1      17.644  68.330  15.265  1.00  0.00    -0.295 OA
ATOM     24  C   UNL     1      18.826  69.435  19.965  1.00  0.00    +0.016 C 
ENDBRANCH   1   3
BRANCH   1  25
ATOM     25  C   UNL     1      17.138  76.303  23.090  1.00  0.00    +0.231 C 
BRANCH  25  26
ATOM     26  O   UNL     1      16.879  77.572  23.695  1.00  0.00    -0.389 OA
ATOM     27  H   UNL     1      15.946  77.805  23.572  1.00  0.00    +0.211 HD
ENDBRANCH  25  26
ENDBRANCH   1  25
TORSDOF 3
ENDMDL
MODEL 3
REMARK VINA RESULT:    -9.725      1.656      7.344
REMARK INTER + INTRA:         -11.338
REMARK INTER:                 -11.425
REMARK INTRA:                   0.086
REMARK UNBOUND:                -0.191
REMARK SMILES C[C@]12CCC(=O)C=C1CC[C@@H]1[C@@H]2[C@@H]2C[C@]3(C(=O)O2)[C@@H](C(=O)CO)CC[C@@H]13
REMARK SMILES IDX 20 1 21 2 19 3 26 4 25 5 15 6 11 7 24 8 14 9 16 10 12 11
REMARK SMILES IDX 10 12 13 13 17 14 18 15 2 16 9 17 8 18 3 19 7 20 4 21 5 22
REMARK SMILES IDX 6 23 1 24 22 25 23 26
REMARK H PARENT 23 27
REMARK INDEX MAP 11 1 25 2 10 3 1 4 13 5 14 6 15 7 9 8 2 9 3 10 16 11 24 12
REMARK INDEX MAP 17 13 19 14 18 15 4 16 23 17 5 18 22 19 6 20 21 21 7 22 20 23
REMARK INDEX MAP 8 24 12 25 26 26 52 27
ROOT
ATOM      1  C   UNL     1      17.897  68.729  16.802  1.00  0.00    +0.162 C 
ATOM      2  O   UNL     1      16.940  68.905  16.088  1.00  0.00    -0.297 OA
ENDROOT
BRANCH   1   3
ATOM      3  C   UNL     1      17.807  69.069  18.335  1.00  0.00    +0.076 C 
ATOM      4  C   UNL     1      18.092  70.311  20.335  1.00  0.00    +0.011 C 
ATOM      5  C   UNL     1      18.772  68.931  20.590  1.00  0.00    +0.006 C 
ATOM      6  C   UNL     1      18.198  70.518  18.763  1.00  0.00    +0.084 C 
ATOM      7  C   UNL     1      18.720  71.516  21.103  1.00  0.00    +0.001 C 
ATOM      8  C   UNL     1      18.621  68.135  19.272  1.00  0.00    +0.013 C 
ATOM      9  C   UNL     1      17.181  71.668  18.435  1.00  0.00    +0.065 C 
ATOM     10  C   UNL     1      19.534  71.198  18.278  1.00  0.00    +0.313 C 
ATOM     11  C   UNL     1      17.971  72.794  20.616  1.00  0.00    +0.044 C 
ATOM     12  C   UNL     1      18.623  71.427  22.674  1.00  0.00    +0.009 C 
ATOM     13  C   UNL     1      17.990  72.856  19.007  1.00  0.00    +0.182 C 
ATOM     14  O   UNL     1      19.795  71.032  16.884  1.00  0.00    -0.252 OA
ATOM     15  O   UNL     1      19.323  72.652  18.469  1.00  0.00    -0.462 OA
ATOM     16  C   UNL     1      18.540  74.117  21.322  1.00  0.00    -0.004 C 
ATOM     17  C   UNL     1      19.222  72.665  23.406  1.00  0.00    +0.032 C 
ATOM     18  C   UNL     1      18.624  73.992  22.877  1.00  0.00    -0.060 C 
ATOM     19  C   UNL     1      17.521  75.265  20.993  1.00  0.00    +0.020 C 
ATOM     20  C   UNL     1      18.239  74.996  23.714  1.00  0.00    +0.047 C 
ATOM     21  C   UNL     1      17.842  76.614  21.660  1.00  0.00    +0.081 C 
ATOM     22  C   UNL     1      17.693  76.336  23.179  1.00  0.00    +0.155 C 
ATOM     23  O   UNL     1      17.173  77.180  23.900  1.00  0.00    -0.295 OA
ATOM     24  C   UNL     1      19.988  74.477  20.821  1.00  0.00    +0.016 C 
ENDBRANCH   1   3
BRANCH   1  25
ATOM     25  C   UNL     1      19.222  68.180  16.269  1.00  0.00    +0.231 C 
BRANCH  25  26
ATOM     26  O   UNL     1      19.078  66.778  16.027  1.00  0.00    -0.389 OA
ATOM     27  H   UNL     1      19.859  66.310  16.363  1.00  0.00    +0.211 HD
ENDBRANCH  25  26
ENDBRANCH   1  25
TORSDOF 3
ENDMDL
MODEL 4
REMARK VINA RESULT:    -7.109      1.508      7.113
REMARK INTER + INTRA:          -8.340
REMARK INTER:                  -8.145
REMARK INTRA:                  -0.195
REMARK UNBOUND:                -0.191
REMARK SMILES C[C@]12CCC(=O)C=C1CC[C@@H]1[C@@H]2[C@@H]2C[C@]3(C(=O)O2)[C@@H](C(=O)CO)CC[C@@H]13
REMARK SMILES IDX 20 1 21 2 19 3 26 4 25 5 15 6 11 7 24 8 14 9 16 10 12 11
REMARK SMILES IDX 10 12 13 13 17 14 18 15 2 16 9 17 8 18 3 19 7 20 4 21 5 22
REMARK SMILES IDX 6 23 1 24 22 25 23 26
REMARK H PARENT 23 27
REMARK INDEX MAP 11 1 25 2 10 3 1 4 13 5 14 6 15 7 9 8 2 9 3 10 16 11 24 12
REMARK INDEX MAP 17 13 19 14 18 15 4 16 23 17 5 18 22 19 6 20 21 21 7 22 20 23
REMARK INDEX MAP 8 24 12 25 26 26 52 27
ROOT
ATOM      1  C   UNL     1      18.568  68.451  17.528  1.00  0.00    +0.162 C 
ATOM      2  O   UNL     1      17.750  67.899  18.223  1.00  0.00    -0.297 OA
ENDROOT
BRANCH   1   3
ATOM      3  C   UNL     1      19.569  69.486  18.163  1.00  0.00    +0.076 C 
ATOM      4  C   UNL     1      20.303  71.491  19.193  1.00  0.00    +0.011 C 
ATOM      5  C   UNL     1      21.134  71.359  17.881  1.00  0.00    +0.006 C 
ATOM      6  C   UNL     1      18.947  70.723  18.881  1.00  0.00    +0.084 C 
ATOM      7  C   UNL     1      20.024  72.954  19.660  1.00  0.00    +0.001 C 
ATOM      8  C   UNL     1      20.627  70.070  17.188  1.00  0.00    +0.013 C 
ATOM      9  C   UNL     1      18.282  70.487  20.283  1.00  0.00    +0.065 C 
ATOM     10  C   UNL     1      17.831  71.606  18.203  1.00  0.00    +0.313 C 
ATOM     11  C   UNL     1      19.092  72.854  20.907  1.00  0.00    +0.044 C 
ATOM     12  C   UNL     1      21.307  73.788  20.040  1.00  0.00    +0.009 C 
ATOM     13  C   UNL     1      17.816  71.936  20.560  1.00  0.00    +0.182 C 
ATOM     14  O   UNL     1      16.792  70.850  17.583  1.00  0.00    -0.252 OA
ATOM     15  O   UNL     1      17.180  72.334  19.317  1.00  0.00    -0.462 OA
ATOM     16  C   UNL     1      18.712  74.303  21.477  1.00  0.00    -0.004 C 
ATOM     17  C   UNL     1      20.988  75.228  20.541  1.00  0.00    +0.032 C 
ATOM     18  C   UNL     1      19.957  75.221  21.696  1.00  0.00    -0.060 C 
ATOM     19  C   UNL     1      18.047  74.065  22.881  1.00  0.00    +0.020 C 
ATOM     20  C   UNL     1      20.110  75.997  22.806  1.00  0.00    +0.047 C 
ATOM     21  C   UNL     1      17.686  75.352  23.643  1.00  0.00    +0.081 C 
ATOM     22  C   UNL     1      19.053  76.024  23.930  1.00  0.00    +0.155 C 
ATOM     23  O   UNL     1      19.245  76.565  25.013  1.00  0.00    -0.295 OA
ATOM     24  C   UNL     1      17.744  75.083  20.512  1.00  0.00    +0.016 C 
ENDBRANCH   1   3
BRANCH   1  25
ATOM     25  C   UNL     1      18.676  68.183  16.026  1.00  0.00    +0.231 C 
BRANCH  25  26
ATOM     26  O   UNL     1      19.057  66.820  15.825  1.00  0.00    -0.389 OA
ATOM     27  H   UNL     1      19.146  66.379  16.684  1.00  0.00    +0.211 HD
ENDBRANCH  25  26
ENDBRANCH   1  25
TORSDOF 3
ENDMDL
MODEL 5
REMARK VINA RESULT:    -6.780      1.606      2.616
REMARK INTER + INTRA:          -7.963
REMARK INTER:                  -7.526
REMARK INTRA:                  -0.436
REMARK UNBOUND:                -0.191
REMARK SMILES C[C@]12CCC(=O)C=C1CC[C@@H]1[C@@H]2[C@@H]2C[C@]3(C(=O)O2)[C@@H](C(=O)CO)CC[C@@H]13
REMARK SMILES IDX 20 1 21 2 19 3 26 4 25 5 15 6 11 7 24 8 14 9 16 10 12 11
REMARK SMILES IDX 10 12 13 13 17 14 18 15 2 16 9 17 8 18 3 19 7 20 4 21 5 22
REMARK SMILES IDX 6 23 1 24 22 25 23 26
REMARK H PARENT 23 27
REMARK INDEX MAP 11 1 25 2 10 3 1 4 13 5 14 6 15 7 9 8 2 9 3 10 16 11 24 12
REMARK INDEX MAP 17 13 19 14 18 15 4 16 23 17 5 18 22 19 6 20 21 21 7 22 20 23
REMARK INDEX MAP 8 24 12 25 26 26 52 27
ROOT
ATOM      1  C   UNL     1      19.411  75.610  22.408  1.00  0.00    +0.162 C 
ATOM      2  O   UNL     1      19.959  76.325  21.605  1.00  0.00    -0.297 OA
ENDROOT
BRANCH   1   3
ATOM      3  C   UNL     1      19.599  74.050  22.329  1.00  0.00    +0.076 C 
ATOM      4  C   UNL     1      19.331  71.839  21.516  1.00  0.00    +0.011 C 
ATOM      5  C   UNL     1      18.890  71.799  23.011  1.00  0.00    +0.006 C 
ATOM      6  C   UNL     1      19.043  73.334  21.060  1.00  0.00    +0.084 C 
ATOM      7  C   UNL     1      18.609  70.818  20.581  1.00  0.00    +0.001 C 
ATOM      8  C   UNL     1      19.027  73.250  23.531  1.00  0.00    +0.013 C 
ATOM      9  C   UNL     1      19.841  73.511  19.721  1.00  0.00    +0.065 C 
ATOM     10  C   UNL     1      17.579  73.591  20.532  1.00  0.00    +0.313 C 
ATOM     11  C   UNL     1      19.110  71.109  19.133  1.00  0.00    +0.044 C 
ATOM     12  C   UNL     1      18.871  69.302  20.923  1.00  0.00    +0.009 C 
ATOM     13  C   UNL     1      18.926  72.673  18.797  1.00  0.00    +0.182 C 
ATOM     14  O   UNL     1      17.211  74.969  20.495  1.00  0.00    -0.252 OA
ATOM     15  O   UNL     1      17.591  73.146  19.119  1.00  0.00    -0.462 OA
ATOM     16  C   UNL     1      18.424  70.132  18.063  1.00  0.00    -0.004 C 
ATOM     17  C   UNL     1      18.170  68.313  19.944  1.00  0.00    +0.032 C 
ATOM     18  C   UNL     1      18.511  68.626  18.467  1.00  0.00    -0.060 C 
ATOM     19  C   UNL     1      19.226  70.311  16.724  1.00  0.00    +0.020 C 
ATOM     20  C   UNL     1      18.823  67.644  17.574  1.00  0.00    +0.047 C 
ATOM     21  C   UNL     1      18.775  69.383  15.582  1.00  0.00    +0.081 C 
ATOM     22  C   UNL     1      19.111  67.957  16.090  1.00  0.00    +0.155 C 
ATOM     23  O   UNL     1      19.569  67.129  15.312  1.00  0.00    -0.295 OA
ATOM     24  C   UNL     1      16.897  70.455  17.862  1.00  0.00    +0.016 C 
ENDBRANCH   1   3
BRANCH   1  25
ATOM     25  C   UNL     1      18.523  76.166  23.523  1.00  0.00    +0.231 C 
BRANCH  25  26
ATOM     26  O   UNL     1      17.153  75.939  23.182  1.00  0.00    -0.389 OA
ATOM     27  H   UNL     1      16.608  75.992  23.982  1.00  0.00    +0.211 HD
ENDBRANCH  25  26
ENDBRANCH   1  25
TORSDOF 3
ENDMDL
MODEL 6
REMARK VINA RESULT:    -5.119      1.793      2.844
REMARK INTER + INTRA:          -6.058
REMARK INTER:                  -6.138
REMARK INTRA:                   0.079
REMARK UNBOUND:                -0.191
REMARK SMILES C[C@]12CCC(=O)C=C1CC[C@@H]1[C@@H]2[C@@H]2C[C@]3(C(=O)O2)[C@@H](C(=O)CO)CC[C@@H]13
REMARK SMILES IDX 20 1 21 2 19 3 26 4 25 5 15 6 11 7 24 8 14 9 16 10 12 11
REMARK SMILES IDX 10 12 13 13 17 14 18 15 2 16 9 17 8 18 3 19 7 20 4 21 5 22
REMARK SMILES IDX 6 23 1 24 22 25 23 26
REMARK H PARENT 23 27
REMARK INDEX MAP 11 1 25 2 10 3 1 4 13 5 14 6 15 7 9 8 2 9 3 10 16 11 24 12
REMARK INDEX MAP 17 13 19 14 18 15 4 16 23 17 5 18 22 19 6 20 21 21 7 22 20 23
REMARK INDEX MAP 8 24 12 25 26 26 52 27
ROOT
ATOM      1  C   UNL     1      18.353  76.019  24.140  1.00  0.00    +0.162 C 
ATOM      2  O   UNL     1      19.164  76.911  24.169  1.00  0.00    -0.297 OA
ENDROOT
BRANCH   1   3
ATOM      3  C   UNL     1      18.807  74.553  23.795  1.00  0.00    +0.076 C 
ATOM      4  C   UNL     1      19.081  72.577  22.513  1.00  0.00    +0.011 C 
ATOM      5  C   UNL     1      18.354  72.138  23.820  1.00  0.00    +0.006 C 
ATOM      6  C   UNL     1      18.651  74.094  22.312  1.00  0.00    +0.084 C 
ATOM      7  C   UNL     1      18.747  71.727  21.247  1.00  0.00    +0.001 C 
ATOM      8  C   UNL     1      18.140  73.433  24.640  1.00  0.00    +0.013 C 
ATOM      9  C   UNL     1      19.668  74.670  21.266  1.00  0.00    +0.065 C 
ATOM     10  C   UNL     1      17.306  74.297  21.515  1.00  0.00    +0.313 C 
ATOM     11  C   UNL     1      19.481  72.404  20.049  1.00  0.00    +0.044 C 
ATOM     12  C   UNL     1      19.179  70.213  21.328  1.00  0.00    +0.009 C 
ATOM     13  C   UNL     1      19.114  73.972  20.002  1.00  0.00    +0.182 C 
ATOM     14  O   UNL     1      16.732  75.594  21.670  1.00  0.00    -0.252 OA
ATOM     15  O   UNL     1      17.682  74.200  20.086  1.00  0.00    -0.462 OA
ATOM     16  C   UNL     1      19.200  71.632  18.672  1.00  0.00    -0.004 C 
ATOM     17  C   UNL     1      18.867  69.407  20.033  1.00  0.00    +0.032 C 
ATOM     18  C   UNL     1      19.449  70.093  18.773  1.00  0.00    -0.060 C 
ATOM     19  C   UNL     1      20.220  72.210  17.627  1.00  0.00    +0.020 C 
ATOM     20  C   UNL     1      20.096  69.391  17.800  1.00  0.00    +0.047 C 
ATOM     21  C   UNL     1      20.174  71.529  16.247  1.00  0.00    +0.081 C 
ATOM     22  C   UNL     1      20.629  70.072  16.523  1.00  0.00    +0.155 C 
ATOM     23  O   UNL     1      21.367  69.508  15.724  1.00  0.00    -0.295 OA
ATOM     24  C   UNL     1      17.715  71.815  18.183  1.00  0.00    +0.016 C 
ENDBRANCH   1   3
BRANCH   1  25
ATOM     25  C   UNL     1      16.869  76.256  24.432  1.00  0.00    +0.231 C 
BRANCH  25  26
ATOM     26  O   UNL     1      16.475  77.499  23.844  1.00  0.00    -0.389 OA
ATOM     27  H   UNL     1      16.223  77.352  22.919  1.00  0.00    +0.211 HD
ENDBRANCH  25  26
ENDBRANCH   1  25
TORSDOF 3
ENDMDL
