REMARK SMILES CC[C@H](/C=C/[C@@H](C)[C@H]1CC[C@H]2[C@@H]3CC=C4CC(=O)CC[C@]4(C)[C@H]3CC[C@]12C)C(C)C
REMARK SMILES IDX 5 1 4 2 6 3 7 4 8 5 18 6 17 7 16 8 19 9 15 10 20 11 21 12
REMARK SMILES IDX 14 13 23 14 13 15 12 16 24 17 11 18 25 19 26 20 10 21 9 22
REMARK SMILES IDX 22 23 27 24 3 25 28 26 29 27 30 28 2 29 1 30
REMARK H PARENT
REMARK INDEX MAP 22 1 24 2 14 3 21 4 6 5 1 6 23 7 19 8 20 9 15 10 16 11 9 12
REMARK INDEX MAP 17 13 5 14 12 15 4 16 10 17 3 18 7 19 2 20 8 21 11 22 18 23
REMARK INDEX MAP 13 24 25 25 26 26 28 27 29 28 27 29 30 30
ROOT
ATOM      1  C   UNL     1      -4.127  -0.735  -0.498  1.00  0.00    -0.028 C 
ATOM      2  C   UNL     1      -5.216  -0.325   0.172  1.00  0.00    -0.027 C 
ENDROOT
BRANCH   1   3
ATOM      3  C   UNL     1      -2.841  -1.180   0.172  1.00  0.00    +0.012 C 
ATOM      4  C   UNL     1      -2.671  -2.677  -0.092  1.00  0.00    +0.012 C 
BRANCH   3   5
ATOM      5  C   UNL     1      -1.644  -0.329  -0.326  1.00  0.00    +0.002 C 
ATOM      6  O   UNL     1       8.113   0.378  -1.069  1.00  0.00    -0.299 OA
ATOM      7  C   UNL     1       7.081   0.116  -0.449  1.00  0.00    +0.136 C 
ATOM      8  C   UNL     1       6.337   1.169   0.346  1.00  0.00    +0.106 C 
ATOM      9  C   UNL     1       6.592  -1.304  -0.306  1.00  0.00    +0.077 C 
ATOM     10  C   UNL     1       4.841   1.017   0.174  1.00  0.00    -0.061 C 
ATOM     11  C   UNL     1       5.090  -1.371  -0.554  1.00  0.00    +0.019 C 
ATOM     12  C   UNL     1       4.248  -0.394   0.317  1.00  0.00    -0.008 C 
ATOM     13  C   UNL     1       4.087   2.099  -0.092  1.00  0.00    -0.026 C 
ATOM     14  C   UNL     1       2.755  -0.435  -0.206  1.00  0.00    +0.003 C 
ATOM     15  C   UNL     1       2.597   2.089  -0.234  1.00  0.00    +0.031 C 
ATOM     16  C   UNL     1       1.944   0.797   0.282  1.00  0.00    +0.000 C 
ATOM     17  C   UNL     1       2.024  -1.774   0.071  1.00  0.00    +0.005 C 
ATOM     18  C   UNL     1       0.494   0.688  -0.203  1.00  0.00    -0.001 C 
ATOM     19  C   UNL     1       0.544  -1.776  -0.347  1.00  0.00    +0.007 C 
ATOM     20  C   UNL     1      -0.228  -0.596   0.269  1.00  0.00    -0.026 C 
ATOM     21  C   UNL     1      -0.469   1.808   0.165  1.00  0.00    +0.005 C 
ATOM     22  C   UNL     1      -1.857   1.191  -0.055  1.00  0.00    +0.005 C 
ATOM     23  C   UNL     1       4.335  -0.810   1.804  1.00  0.00    +0.016 C 
ATOM     24  C   UNL     1      -0.292  -0.743   1.808  1.00  0.00    +0.012 C 
ENDBRANCH   3   5
ENDBRANCH   1   3
BRANCH   2  25
ATOM     25  C   UNL     1      -6.510   0.096  -0.493  1.00  0.00    +0.014 C 
BRANCH  25  26
ATOM     26  C   UNL     1      -6.861   1.593  -0.239  1.00  0.00    -0.011 C 
ATOM     27  C   UNL     1      -5.801   2.529  -0.833  1.00  0.00    +0.008 C 
ATOM     28  C   UNL     1      -7.092   1.948   1.234  1.00  0.00    +0.008 C 
ENDBRANCH  25  26
BRANCH  25  29
ATOM     29  C   UNL     1      -7.667  -0.835  -0.067  1.00  0.00    +0.004 C 
ATOM     30  C   UNL     1      -7.498  -2.267  -0.565  1.00  0.00    +0.004 C 
ENDBRANCH  25  29
ENDBRANCH   2  25
TORSDOF 5
