MODEL 1
REMARK VINA RESULT:    -3.929      0.000      0.000
REMARK INTER + INTRA:          -4.810
REMARK INTER:                  -5.078
REMARK INTRA:                   0.268
REMARK UNBOUND:                 0.268
REMARK SMILES CC[C@H](/C=C/[C@@H](C)[C@H]1CC[C@H]2[C@@H]3CC=C4CC(=O)CC[C@]4(C)[C@H]3CC[C@]12C)C(C)C
REMARK SMILES IDX 5 1 4 2 6 3 7 4 8 5 18 6 17 7 16 8 19 9 15 10 20 11 21 12
REMARK SMILES IDX 14 13 23 14 13 15 12 16 24 17 11 18 25 19 26 20 10 21 9 22
REMARK SMILES IDX 22 23 27 24 3 25 28 26 29 27 30 28 2 29 1 30
REMARK H PARENT
REMARK INDEX MAP 22 1 24 2 14 3 21 4 6 5 1 6 23 7 19 8 20 9 15 10 16 11 9 12
REMARK INDEX MAP 17 13 5 14 12 15 4 16 10 17 3 18 7 19 2 20 8 21 11 22 18 23
REMARK INDEX MAP 13 24 25 25 26 26 28 27 29 28 27 29 30 30
ROOT
ATOM      1  C   UNL     1      19.499  75.807  22.163  1.00  0.00    -0.028 C 
ATOM      2  C   UNL     1      18.511  76.625  21.767  1.00  0.00    -0.027 C 
ENDROOT
BRANCH   1   3
ATOM      3  C   UNL     1      20.898  75.826  21.577  1.00  0.00    +0.012 C 
ATOM      4  C   UNL     1      21.859  75.305  22.646  1.00  0.00    +0.012 C 
BRANCH   3   5
ATOM      5  C   UNL     1      20.947  75.014  20.257  1.00  0.00    +0.002 C 
ATOM      6  O   UNL     1      16.789  67.949  14.867  1.00  0.00    -0.299 OA
ATOM      7  C   UNL     1      17.192  68.414  15.934  1.00  0.00    +0.136 C 
ATOM      8  C   UNL     1      18.620  68.223  16.401  1.00  0.00    +0.106 C 
ATOM      9  C   UNL     1      16.244  69.055  16.917  1.00  0.00    +0.077 C 
ATOM     10  C   UNL     1      19.156  69.491  17.030  1.00  0.00    -0.061 C 
ATOM     11  C   UNL     1      16.837  70.353  17.452  1.00  0.00    +0.019 C 
ATOM     12  C   UNL     1      18.264  70.208  18.057  1.00  0.00    -0.008 C 
ATOM     13  C   UNL     1      20.373  69.946  16.682  1.00  0.00    -0.026 C 
ATOM     14  C   UNL     1      18.813  71.659  18.367  1.00  0.00    +0.003 C 
ATOM     15  C   UNL     1      21.034  71.155  17.266  1.00  0.00    +0.031 C 
ATOM     16  C   UNL     1      20.356  71.660  18.550  1.00  0.00    +0.000 C 
ATOM     17  C   UNL     1      18.078  72.380  19.526  1.00  0.00    +0.005 C 
ATOM     18  C   UNL     1      20.836  73.073  18.900  1.00  0.00    -0.001 C 
ATOM     19  C   UNL     1      18.679  73.748  19.892  1.00  0.00    +0.007 C 
ATOM     20  C   UNL     1      20.188  73.654  20.178  1.00  0.00    -0.026 C 
ATOM     21  C   UNL     1      22.328  73.289  19.113  1.00  0.00    +0.005 C 
ATOM     22  C   UNL     1      22.405  74.623  19.867  1.00  0.00    +0.005 C 
ATOM     23  C   UNL     1      18.205  69.343  19.338  1.00  0.00    +0.016 C 
ATOM     24  C   UNL     1      20.441  72.803  21.445  1.00  0.00    +0.012 C 
ENDBRANCH   3   5
ENDBRANCH   1   3
BRANCH   2  25
ATOM     25  C   UNL     1      17.120  76.625  22.368  1.00  0.00    +0.014 C 
BRANCH  25  26
ATOM     26  C   UNL     1      17.131  76.803  23.916  1.00  0.00    -0.011 C 
ATOM     27  C   UNL     1      17.613  75.533  24.626  1.00  0.00    +0.008 C 
ATOM     28  C   UNL     1      15.790  77.247  24.511  1.00  0.00    +0.008 C 
ENDBRANCH  25  26
BRANCH  25  29
ATOM     29  C   UNL     1      16.349  75.352  21.952  1.00  0.00    +0.004 C 
ATOM     30  C   UNL     1      16.073  75.282  20.453  1.00  0.00    +0.004 C 
ENDBRANCH  25  29
ENDBRANCH   2  25
TORSDOF 5
ENDMDL
MODEL 2
REMARK VINA RESULT:    -3.470      3.644      9.537
REMARK INTER + INTRA:          -4.216
REMARK INTER:                  -3.440
REMARK INTRA:                  -0.777
REMARK UNBOUND:                 0.268
REMARK SMILES CC[C@H](/C=C/[C@@H](C)[C@H]1CC[C@H]2[C@@H]3CC=C4CC(=O)CC[C@]4(C)[C@H]3CC[C@]12C)C(C)C
REMARK SMILES IDX 5 1 4 2 6 3 7 4 8 5 18 6 17 7 16 8 19 9 15 10 20 11 21 12
REMARK SMILES IDX 14 13 23 14 13 15 12 16 24 17 11 18 25 19 26 20 10 21 9 22
REMARK SMILES IDX 22 23 27 24 3 25 28 26 29 27 30 28 2 29 1 30
REMARK H PARENT
REMARK INDEX MAP 22 1 24 2 14 3 21 4 6 5 1 6 23 7 19 8 20 9 15 10 16 11 9 12
REMARK INDEX MAP 17 13 5 14 12 15 4 16 10 17 3 18 7 19 2 20 8 21 11 22 18 23
REMARK INDEX MAP 13 24 25 25 26 26 28 27 29 28 27 29 30 30
ROOT
ATOM      1  C   UNL     1      19.359  66.447  17.054  1.00  0.00    -0.028 C 
ATOM      2  C   UNL     1      19.346  65.506  16.096  1.00  0.00    -0.027 C 
ENDROOT
BRANCH   1   3
ATOM      3  C   UNL     1      18.999  67.901  16.814  1.00  0.00    +0.012 C 
ATOM      4  C   UNL     1      18.016  67.952  15.644  1.00  0.00    +0.012 C 
BRANCH   3   5
ATOM      5  C   UNL     1      18.444  68.546  18.111  1.00  0.00    +0.002 C 
ATOM      6  O   UNL     1      17.741  76.709  23.507  1.00  0.00    -0.299 OA
ATOM      7  C   UNL     1      18.371  75.911  22.811  1.00  0.00    +0.136 C 
ATOM      8  C   UNL     1      19.068  74.706  23.408  1.00  0.00    +0.106 C 
ATOM      9  C   UNL     1      18.626  76.179  21.348  1.00  0.00    +0.077 C 
ATOM     10  C   UNL     1      18.895  73.490  22.523  1.00  0.00    -0.061 C 
ATOM     11  C   UNL     1      18.370  74.920  20.530  1.00  0.00    +0.019 C 
ATOM     12  C   UNL     1      19.148  73.663  21.017  1.00  0.00    -0.008 C 
ATOM     13  C   UNL     1      18.532  72.315  23.069  1.00  0.00    -0.026 C 
ATOM     14  C   UNL     1      18.616  72.413  20.207  1.00  0.00    +0.003 C 
ATOM     15  C   UNL     1      18.377  71.032  22.312  1.00  0.00    +0.031 C 
ATOM     16  C   UNL     1      18.992  71.077  20.905  1.00  0.00    +0.000 C 
ATOM     17  C   UNL     1      18.996  72.424  18.703  1.00  0.00    +0.005 C 
ATOM     18  C   UNL     1      18.503  69.895  20.059  1.00  0.00    -0.001 C 
ATOM     19  C   UNL     1      18.565  71.161  17.940  1.00  0.00    +0.007 C 
ATOM     20  C   UNL     1      19.073  69.878  18.621  1.00  0.00    -0.026 C 
ATOM     21  C   UNL     1      18.768  68.488  20.577  1.00  0.00    +0.005 C 
ATOM     22  C   UNL     1      18.586  67.598  19.340  1.00  0.00    +0.005 C 
ATOM     23  C   UNL     1      20.666  73.870  20.800  1.00  0.00    +0.016 C 
ATOM     24  C   UNL     1      20.618  69.818  18.566  1.00  0.00    +0.012 C 
ENDBRANCH   3   5
ENDBRANCH   1   3
BRANCH   2  25
ATOM     25  C   UNL     1      19.680  64.048  16.337  1.00  0.00    +0.014 C 
BRANCH  25  26
ATOM     26  C   UNL     1      18.624  63.077  15.728  1.00  0.00    -0.011 C 
ATOM     27  C   UNL     1      17.908  62.269  16.816  1.00  0.00    +0.008 C 
ATOM     28  C   UNL     1      19.180  62.125  14.663  1.00  0.00    +0.008 C 
ENDBRANCH  25  26
BRANCH  25  29
ATOM     29  C   UNL     1      19.889  63.781  17.844  1.00  0.00    +0.004 C 
ATOM     30  C   UNL     1      20.816  62.602  18.120  1.00  0.00    +0.004 C 
ENDBRANCH  25  29
ENDBRANCH   2  25
TORSDOF 5
ENDMDL
MODEL 3
REMARK VINA RESULT:    -3.262      0.886      1.617
REMARK INTER + INTRA:          -3.947
REMARK INTER:                  -4.219
REMARK INTRA:                   0.271
REMARK UNBOUND:                 0.268
REMARK SMILES CC[C@H](/C=C/[C@@H](C)[C@H]1CC[C@H]2[C@@H]3CC=C4CC(=O)CC[C@]4(C)[C@H]3CC[C@]12C)C(C)C
REMARK SMILES IDX 5 1 4 2 6 3 7 4 8 5 18 6 17 7 16 8 19 9 15 10 20 11 21 12
REMARK SMILES IDX 14 13 23 14 13 15 12 16 24 17 11 18 25 19 26 20 10 21 9 22
REMARK SMILES IDX 22 23 27 24 3 25 28 26 29 27 30 28 2 29 1 30
REMARK H PARENT
REMARK INDEX MAP 22 1 24 2 14 3 21 4 6 5 1 6 23 7 19 8 20 9 15 10 16 11 9 12
REMARK INDEX MAP 17 13 5 14 12 15 4 16 10 17 3 18 7 19 2 20 8 21 11 22 18 23
REMARK INDEX MAP 13 24 25 25 26 26 28 27 29 28 27 29 30 30
ROOT
ATOM      1  C   UNL     1      19.547  75.838  22.127  1.00  0.00    -0.028 C 
ATOM      2  C   UNL     1      19.468  75.368  23.382  1.00  0.00    -0.027 C 
ENDROOT
BRANCH   1   3
ATOM      3  C   UNL     1      20.853  76.062  21.390  1.00  0.00    +0.012 C 
ATOM      4  C   UNL     1      21.995  75.741  22.355  1.00  0.00    +0.012 C 
BRANCH   3   5
ATOM      5  C   UNL     1      20.896  75.220  20.088  1.00  0.00    +0.002 C 
ATOM      6  O   UNL     1      16.807  67.932  14.948  1.00  0.00    -0.299 OA
ATOM      7  C   UNL     1      17.220  68.432  15.996  1.00  0.00    +0.136 C 
ATOM      8  C   UNL     1      18.662  68.287  16.436  1.00  0.00    +0.106 C 
ATOM      9  C   UNL     1      16.276  69.071  16.984  1.00  0.00    +0.077 C 
ATOM     10  C   UNL     1      19.178  69.582  17.025  1.00  0.00    -0.061 C 
ATOM     11  C   UNL     1      16.848  70.395  17.477  1.00  0.00    +0.019 C 
ATOM     12  C   UNL     1      18.290  70.300  18.054  1.00  0.00    -0.008 C 
ATOM     13  C   UNL     1      20.376  70.059  16.640  1.00  0.00    -0.026 C 
ATOM     14  C   UNL     1      18.809  71.771  18.320  1.00  0.00    +0.003 C 
ATOM     15  C   UNL     1      21.018  71.297  17.183  1.00  0.00    +0.031 C 
ATOM     16  C   UNL     1      20.355  71.815  18.469  1.00  0.00    +0.000 C 
ATOM     17  C   UNL     1      18.080  72.500  19.478  1.00  0.00    +0.005 C 
ATOM     18  C   UNL     1      20.806  73.247  18.777  1.00  0.00    -0.001 C 
ATOM     19  C   UNL     1      18.653  73.890  19.800  1.00  0.00    +0.007 C 
ATOM     20  C   UNL     1      20.170  73.841  20.056  1.00  0.00    -0.026 C 
ATOM     21  C   UNL     1      22.295  73.505  18.953  1.00  0.00    +0.005 C 
ATOM     22  C   UNL     1      22.355  74.858  19.676  1.00  0.00    +0.005 C 
ATOM     23  C   UNL     1      18.280  69.464  19.355  1.00  0.00    +0.016 C 
ATOM     24  C   UNL     1      20.471  73.026  21.336  1.00  0.00    +0.012 C 
ENDBRANCH   3   5
ENDBRANCH   1   3
BRANCH   2  25
ATOM     25  C   UNL     1      18.165  75.119  24.112  1.00  0.00    +0.014 C 
BRANCH  25  26
ATOM     26  C   UNL     1      17.901  73.607  24.381  1.00  0.00    -0.011 C 
ATOM     27  C   UNL     1      18.306  73.209  25.806  1.00  0.00    +0.008 C 
ATOM     28  C   UNL     1      18.565  72.660  23.375  1.00  0.00    +0.008 C 
ENDBRANCH  25  26
BRANCH  25  29
ATOM     29  C   UNL     1      16.986  75.772  23.356  1.00  0.00    +0.004 C 
ATOM     30  C   UNL     1      16.765  77.232  23.737  1.00  0.00    +0.004 C 
ENDBRANCH  25  29
ENDBRANCH   2  25
TORSDOF 5
ENDMDL
MODEL 4
REMARK VINA RESULT:    -2.248      1.224      2.225
REMARK INTER + INTRA:          -2.637
REMARK INTER:                  -4.015
REMARK INTRA:                   1.379
REMARK UNBOUND:                 0.268
REMARK SMILES CC[C@H](/C=C/[C@@H](C)[C@H]1CC[C@H]2[C@@H]3CC=C4CC(=O)CC[C@]4(C)[C@H]3CC[C@]12C)C(C)C
REMARK SMILES IDX 5 1 4 2 6 3 7 4 8 5 18 6 17 7 16 8 19 9 15 10 20 11 21 12
REMARK SMILES IDX 14 13 23 14 13 15 12 16 24 17 11 18 25 19 26 20 10 21 9 22
REMARK SMILES IDX 22 23 27 24 3 25 28 26 29 27 30 28 2 29 1 30
REMARK H PARENT
REMARK INDEX MAP 22 1 24 2 14 3 21 4 6 5 1 6 23 7 19 8 20 9 15 10 16 11 9 12
REMARK INDEX MAP 17 13 5 14 12 15 4 16 10 17 3 18 7 19 2 20 8 21 11 22 18 23
REMARK INDEX MAP 13 24 25 25 26 26 28 27 29 28 27 29 30 30
ROOT
ATOM      1  C   UNL     1      19.799  76.299  21.928  1.00  0.00    -0.028 C 
ATOM      2  C   UNL     1      18.541  75.945  21.619  1.00  0.00    -0.027 C 
ENDROOT
BRANCH   1   3
ATOM      3  C   UNL     1      21.030  75.700  21.275  1.00  0.00    +0.012 C 
ATOM      4  C   UNL     1      22.257  76.220  22.026  1.00  0.00    +0.012 C 
BRANCH   3   5
ATOM      5  C   UNL     1      20.935  74.153  21.250  1.00  0.00    +0.002 C 
ATOM      6  O   UNL     1      19.197  66.174  15.812  1.00  0.00    -0.299 OA
ATOM      7  C   UNL     1      18.947  67.325  16.174  1.00  0.00    +0.136 C 
ATOM      8  C   UNL     1      18.035  67.614  17.348  1.00  0.00    +0.106 C 
ATOM      9  C   UNL     1      19.397  68.515  15.364  1.00  0.00    +0.077 C 
ATOM     10  C   UNL     1      18.578  68.752  18.185  1.00  0.00    -0.061 C 
ATOM     11  C   UNL     1      19.983  69.583  16.280  1.00  0.00    +0.019 C 
ATOM     12  C   UNL     1      19.049  70.016  17.447  1.00  0.00    -0.008 C 
ATOM     13  C   UNL     1      18.631  68.630  19.523  1.00  0.00    -0.026 C 
ATOM     14  C   UNL     1      19.876  70.958  18.412  1.00  0.00    +0.003 C 
ATOM     15  C   UNL     1      19.098  69.698  20.462  1.00  0.00    +0.031 C 
ATOM     16  C   UNL     1      19.201  71.084  19.806  1.00  0.00    +0.000 C 
ATOM     17  C   UNL     1      20.231  72.337  17.799  1.00  0.00    +0.005 C 
ATOM     18  C   UNL     1      20.006  72.046  20.687  1.00  0.00    -0.001 C 
ATOM     19  C   UNL     1      20.946  73.289  18.773  1.00  0.00    +0.007 C 
ATOM     20  C   UNL     1      20.162  73.462  20.085  1.00  0.00    -0.026 C 
ATOM     21  C   UNL     1      19.512  72.300  22.104  1.00  0.00    +0.005 C 
ATOM     22  C   UNL     1      20.229  73.591  22.521  1.00  0.00    +0.005 C 
ATOM     23  C   UNL     1      17.805  70.741  16.882  1.00  0.00    +0.016 C 
ATOM     24  C   UNL     1      18.815  74.174  19.815  1.00  0.00    +0.012 C 
ENDBRANCH   3   5
ENDBRANCH   1   3
BRANCH   2  25
ATOM     25  C   UNL     1      17.310  76.559  22.252  1.00  0.00    +0.014 C 
BRANCH  25  26
ATOM     26  C   UNL     1      17.448  76.738  23.794  1.00  0.00    -0.011 C 
ATOM     27  C   UNL     1      17.932  75.449  24.470  1.00  0.00    +0.008 C 
ATOM     28  C   UNL     1      16.176  77.236  24.490  1.00  0.00    +0.008 C 
ENDBRANCH  25  26
BRANCH  25  29
ATOM     29  C   UNL     1      16.049  75.743  21.889  1.00  0.00    +0.004 C 
ATOM     30  C   UNL     1      16.363  74.477  21.098  1.00  0.00    +0.004 C 
ENDBRANCH  25  29
ENDBRANCH   2  25
TORSDOF 5
ENDMDL
MODEL 5
REMARK VINA RESULT:    -2.003      3.627      9.329
REMARK INTER + INTRA:          -2.320
REMARK INTER:                  -2.608
REMARK INTRA:                   0.288
REMARK UNBOUND:                 0.268
REMARK SMILES CC[C@H](/C=C/[C@@H](C)[C@H]1CC[C@H]2[C@@H]3CC=C4CC(=O)CC[C@]4(C)[C@H]3CC[C@]12C)C(C)C
REMARK SMILES IDX 5 1 4 2 6 3 7 4 8 5 18 6 17 7 16 8 19 9 15 10 20 11 21 12
REMARK SMILES IDX 14 13 23 14 13 15 12 16 24 17 11 18 25 19 26 20 10 21 9 22
REMARK SMILES IDX 22 23 27 24 3 25 28 26 29 27 30 28 2 29 1 30
REMARK H PARENT
REMARK INDEX MAP 22 1 24 2 14 3 21 4 6 5 1 6 23 7 19 8 20 9 15 10 16 11 9 12
REMARK INDEX MAP 17 13 5 14 12 15 4 16 10 17 3 18 7 19 2 20 8 21 11 22 18 23
REMARK INDEX MAP 13 24 25 25 26 26 28 27 29 28 27 29 30 30
ROOT
ATOM      1  C   UNL     1      19.402  66.384  16.959  1.00  0.00    -0.028 C 
ATOM      2  C   UNL     1      19.399  65.252  16.236  1.00  0.00    -0.027 C 
ENDROOT
BRANCH   1   3
ATOM      3  C   UNL     1      18.990  67.737  16.411  1.00  0.00    +0.012 C 
ATOM      4  C   UNL     1      17.475  67.866  16.578  1.00  0.00    +0.012 C 
BRANCH   3   5
ATOM      5  C   UNL     1      19.784  68.872  17.108  1.00  0.00    +0.002 C 
ATOM      6  O   UNL     1      19.795  75.651  24.200  1.00  0.00    -0.299 OA
ATOM      7  C   UNL     1      19.258  75.038  23.277  1.00  0.00    +0.136 C 
ATOM      8  C   UNL     1      19.377  75.495  21.837  1.00  0.00    +0.106 C 
ATOM      9  C   UNL     1      18.310  73.894  23.542  1.00  0.00    +0.077 C 
ATOM     10  C   UNL     1      19.569  74.314  20.911  1.00  0.00    -0.061 C 
ATOM     11  C   UNL     1      18.615  72.730  22.607  1.00  0.00    +0.019 C 
ATOM     12  C   UNL     1      18.638  73.105  21.097  1.00  0.00    -0.008 C 
ATOM     13  C   UNL     1      20.529  74.354  19.969  1.00  0.00    -0.026 C 
ATOM     14  C   UNL     1      19.171  71.852  20.290  1.00  0.00    +0.003 C 
ATOM     15  C   UNL     1      20.786  73.276  18.963  1.00  0.00    +0.031 C 
ATOM     16  C   UNL     1      19.647  72.249  18.865  1.00  0.00    +0.000 C 
ATOM     17  C   UNL     1      18.196  70.647  20.275  1.00  0.00    +0.005 C 
ATOM     18  C   UNL     1      20.103  71.000  18.104  1.00  0.00    -0.001 C 
ATOM     19  C   UNL     1      18.670  69.469  19.408  1.00  0.00    +0.007 C 
ATOM     20  C   UNL     1      19.010  69.913  17.974  1.00  0.00    -0.026 C 
ATOM     21  C   UNL     1      20.617  71.177  16.682  1.00  0.00    +0.005 C 
ATOM     22  C   UNL     1      20.545  69.765  16.083  1.00  0.00    +0.005 C 
ATOM     23  C   UNL     1      17.218  73.508  20.635  1.00  0.00    +0.016 C 
ATOM     24  C   UNL     1      17.734  70.399  17.247  1.00  0.00    +0.012 C 
ENDBRANCH   3   5
ENDBRANCH   1   3
BRANCH   2  25
ATOM     25  C   UNL     1      19.785  63.895  16.786  1.00  0.00    +0.014 C 
BRANCH  25  26
ATOM     26  C   UNL     1      19.182  62.715  15.966  1.00  0.00    -0.011 C 
ATOM     27  C   UNL     1      17.870  62.214  16.581  1.00  0.00    +0.008 C 
ATOM     28  C   UNL     1      20.137  61.534  15.759  1.00  0.00    +0.008 C 
ENDBRANCH  25  26
BRANCH  25  29
ATOM     29  C   UNL     1      19.413  63.790  18.282  1.00  0.00    +0.004 C 
ATOM     30  C   UNL     1      20.438  63.012  19.101  1.00  0.00    +0.004 C 
ENDBRANCH  25  29
ENDBRANCH   2  25
TORSDOF 5
ENDMDL
MODEL 6
REMARK VINA RESULT:    -1.799      3.655      9.189
REMARK INTER + INTRA:          -2.057
REMARK INTER:                  -2.420
REMARK INTRA:                   0.363
REMARK UNBOUND:                 0.268
REMARK SMILES CC[C@H](/C=C/[C@@H](C)[C@H]1CC[C@H]2[C@@H]3CC=C4CC(=O)CC[C@]4(C)[C@H]3CC[C@]12C)C(C)C
REMARK SMILES IDX 5 1 4 2 6 3 7 4 8 5 18 6 17 7 16 8 19 9 15 10 20 11 21 12
REMARK SMILES IDX 14 13 23 14 13 15 12 16 24 17 11 18 25 19 26 20 10 21 9 22
REMARK SMILES IDX 22 23 27 24 3 25 28 26 29 27 30 28 2 29 1 30
REMARK H PARENT
REMARK INDEX MAP 22 1 24 2 14 3 21 4 6 5 1 6 23 7 19 8 20 9 15 10 16 11 9 12
REMARK INDEX MAP 17 13 5 14 12 15 4 16 10 17 3 18 7 19 2 20 8 21 11 22 18 23
REMARK INDEX MAP 13 24 25 25 26 26 28 27 29 28 27 29 30 30
ROOT
ATOM      1  C   UNL     1      19.006  66.405  16.614  1.00  0.00    -0.028 C 
ATOM      2  C   UNL     1      19.384  65.225  16.096  1.00  0.00    -0.027 C 
ENDROOT
BRANCH   1   3
ATOM      3  C   UNL     1      19.192  67.735  15.909  1.00  0.00    +0.012 C 
ATOM      4  C   UNL     1      17.820  68.197  15.415  1.00  0.00    +0.012 C 
BRANCH   3   5
ATOM      5  C   UNL     1      19.882  68.758  16.848  1.00  0.00    +0.002 C 
ATOM      6  O   UNL     1      19.092  74.195  24.976  1.00  0.00    -0.299 OA
ATOM      7  C   UNL     1      18.649  73.734  23.924  1.00  0.00    +0.136 C 
ATOM      8  C   UNL     1      18.844  74.438  22.597  1.00  0.00    +0.106 C 
ATOM      9  C   UNL     1      17.740  72.529  23.918  1.00  0.00    +0.077 C 
ATOM     10  C   UNL     1      19.154  73.444  21.499  1.00  0.00    -0.061 C 
ATOM     11  C   UNL     1      18.162  71.557  22.823  1.00  0.00    +0.019 C 
ATOM     12  C   UNL     1      18.270  72.189  21.405  1.00  0.00    -0.008 C 
ATOM     13  C   UNL     1      20.173  73.681  20.653  1.00  0.00    -0.026 C 
ATOM     14  C   UNL     1      18.915  71.116  20.438  1.00  0.00    +0.003 C 
ATOM     15  C   UNL     1      20.548  72.804  19.500  1.00  0.00    +0.031 C 
ATOM     16  C   UNL     1      19.468  71.771  19.142  1.00  0.00    +0.000 C 
ATOM     17  C   UNL     1      18.001  69.899  20.144  1.00  0.00    +0.005 C 
ATOM     18  C   UNL     1      20.033  70.690  18.215  1.00  0.00    -0.001 C 
ATOM     19  C   UNL     1      18.589  68.907  19.126  1.00  0.00    +0.007 C 
ATOM     20  C   UNL     1      19.004  69.605  17.819  1.00  0.00    -0.026 C 
ATOM     21  C   UNL     1      20.634  71.129  16.887  1.00  0.00    +0.005 C 
ATOM     22  C   UNL     1      20.669  69.842  16.052  1.00  0.00    +0.005 C 
ATOM     23  C   UNL     1      16.868  72.618  20.914  1.00  0.00    +0.016 C 
ATOM     24  C   UNL     1      17.758  70.166  17.092  1.00  0.00    +0.012 C 
ENDBRANCH   3   5
ENDBRANCH   1   3
BRANCH   2  25
ATOM     25  C   UNL     1      19.177  63.893  16.786  1.00  0.00    +0.014 C 
BRANCH  25  26
ATOM     26  C   UNL     1      20.365  63.503  17.717  1.00  0.00    -0.011 C 
ATOM     27  C   UNL     1      21.041  62.207  17.255  1.00  0.00    +0.008 C 
ATOM     28  C   UNL     1      19.995  63.389  19.200  1.00  0.00    +0.008 C 
ENDBRANCH  25  26
BRANCH  25  29
ATOM     29  C   UNL     1      18.885  62.784  15.750  1.00  0.00    +0.004 C 
ATOM     30  C   UNL     1      17.789  61.822  16.195  1.00  0.00    +0.004 C 
ENDBRANCH  25  29
ENDBRANCH   2  25
TORSDOF 5
ENDMDL
MODEL 7
REMARK VINA RESULT:    -1.605      2.656      7.437
REMARK INTER + INTRA:          -1.806
REMARK INTER:                  -2.120
REMARK INTRA:                   0.314
REMARK UNBOUND:                 0.268
REMARK SMILES CC[C@H](/C=C/[C@@H](C)[C@H]1CC[C@H]2[C@@H]3CC=C4CC(=O)CC[C@]4(C)[C@H]3CC[C@]12C)C(C)C
REMARK SMILES IDX 5 1 4 2 6 3 7 4 8 5 18 6 17 7 16 8 19 9 15 10 20 11 21 12
REMARK SMILES IDX 14 13 23 14 13 15 12 16 24 17 11 18 25 19 26 20 10 21 9 22
REMARK SMILES IDX 22 23 27 24 3 25 28 26 29 27 30 28 2 29 1 30
REMARK H PARENT
REMARK INDEX MAP 22 1 24 2 14 3 21 4 6 5 1 6 23 7 19 8 20 9 15 10 16 11 9 12
REMARK INDEX MAP 17 13 5 14 12 15 4 16 10 17 3 18 7 19 2 20 8 21 11 22 18 23
REMARK INDEX MAP 13 24 25 25 26 26 28 27 29 28 27 29 30 30
ROOT
ATOM      1  C   UNL     1      20.111  69.402  17.114  1.00  0.00    -0.028 C 
ATOM      2  C   UNL     1      19.058  69.393  17.948  1.00  0.00    -0.027 C 
ENDROOT
BRANCH   1   3
ATOM      3  C   UNL     1      21.174  70.484  17.107  1.00  0.00    +0.012 C 
ATOM      4  C   UNL     1      20.906  71.393  15.906  1.00  0.00    +0.012 C 
BRANCH   3   5
ATOM      5  C   UNL     1      21.189  71.242  18.460  1.00  0.00    +0.002 C 
ATOM      6  O   UNL     1      16.204  77.009  24.636  1.00  0.00    -0.299 OA
ATOM      7  C   UNL     1      16.579  76.682  23.508  1.00  0.00    +0.136 C 
ATOM      8  C   UNL     1      17.870  77.204  22.913  1.00  0.00    +0.106 C 
ATOM      9  C   UNL     1      15.691  75.879  22.590  1.00  0.00    +0.077 C 
ATOM     10  C   UNL     1      18.598  76.110  22.162  1.00  0.00    -0.061 C 
ATOM     11  C   UNL     1      16.492  74.766  21.925  1.00  0.00    +0.019 C 
ATOM     12  C   UNL     1      17.777  75.247  21.190  1.00  0.00    -0.008 C 
ATOM     13  C   UNL     1      19.916  75.928  22.360  1.00  0.00    -0.026 C 
ATOM     14  C   UNL     1      18.594  73.967  20.743  1.00  0.00    +0.003 C 
ATOM     15  C   UNL     1      20.757  74.918  21.644  1.00  0.00    +0.031 C 
ATOM     16  C   UNL     1      20.069  74.318  20.408  1.00  0.00    +0.000 C 
ATOM     17  C   UNL     1      17.911  73.140  19.624  1.00  0.00    +0.005 C 
ATOM     18  C   UNL     1      20.805  73.061  19.931  1.00  0.00    -0.001 C 
ATOM     19  C   UNL     1      18.753  71.954  19.122  1.00  0.00    +0.007 C 
ATOM     20  C   UNL     1      20.164  72.393  18.692  1.00  0.00    -0.026 C 
ATOM     21  C   UNL     1      22.276  73.192  19.558  1.00  0.00    +0.005 C 
ATOM     22  C   UNL     1      22.560  71.935  18.724  1.00  0.00    +0.005 C 
ATOM     23  C   UNL     1      17.389  76.119  19.973  1.00  0.00    +0.016 C 
ATOM     24  C   UNL     1      20.083  73.322  17.457  1.00  0.00    +0.012 C 
ENDBRANCH   3   5
ENDBRANCH   1   3
BRANCH   2  25
ATOM     25  C   UNL     1      18.009  68.301  17.975  1.00  0.00    +0.014 C 
BRANCH  25  26
ATOM     26  C   UNL     1      16.683  68.720  17.270  1.00  0.00    -0.011 C 
ATOM     27  C   UNL     1      16.813  68.659  15.743  1.00  0.00    +0.008 C 
ATOM     28  C   UNL     1      16.153  70.096  17.686  1.00  0.00    +0.008 C 
ENDBRANCH  25  26
BRANCH  25  29
ATOM     29  C   UNL     1      17.754  67.829  19.424  1.00  0.00    +0.004 C 
ATOM     30  C   UNL     1      18.631  68.541  20.449  1.00  0.00    +0.004 C 
ENDBRANCH  25  29
ENDBRANCH   2  25
TORSDOF 5
ENDMDL
MODEL 8
REMARK VINA RESULT:    -1.182      2.685      7.549
REMARK INTER + INTRA:          -1.259
REMARK INTER:                  -2.183
REMARK INTRA:                   0.924
REMARK UNBOUND:                 0.268
REMARK SMILES CC[C@H](/C=C/[C@@H](C)[C@H]1CC[C@H]2[C@@H]3CC=C4CC(=O)CC[C@]4(C)[C@H]3CC[C@]12C)C(C)C
REMARK SMILES IDX 5 1 4 2 6 3 7 4 8 5 18 6 17 7 16 8 19 9 15 10 20 11 21 12
REMARK SMILES IDX 14 13 23 14 13 15 12 16 24 17 11 18 25 19 26 20 10 21 9 22
REMARK SMILES IDX 22 23 27 24 3 25 28 26 29 27 30 28 2 29 1 30
REMARK H PARENT
REMARK INDEX MAP 22 1 24 2 14 3 21 4 6 5 1 6 23 7 19 8 20 9 15 10 16 11 9 12
REMARK INDEX MAP 17 13 5 14 12 15 4 16 10 17 3 18 7 19 2 20 8 21 11 22 18 23
REMARK INDEX MAP 13 24 25 25 26 26 28 27 29 28 27 29 30 30
ROOT
ATOM      1  C   UNL     1      19.793  69.471  17.331  1.00  0.00    -0.028 C 
ATOM      2  C   UNL     1      18.964  69.765  16.317  1.00  0.00    -0.027 C 
ENDROOT
BRANCH   1   3
ATOM      3  C   UNL     1      21.170  70.083  17.501  1.00  0.00    +0.012 C 
ATOM      4  C   UNL     1      21.511  70.832  16.212  1.00  0.00    +0.012 C 
BRANCH   3   5
ATOM      5  C   UNL     1      21.214  70.983  18.763  1.00  0.00    +0.002 C 
ATOM      6  O   UNL     1      16.296  77.248  24.492  1.00  0.00    -0.299 OA
ATOM      7  C   UNL     1      16.637  76.811  23.391  1.00  0.00    +0.136 C 
ATOM      8  C   UNL     1      17.887  77.300  22.690  1.00  0.00    +0.106 C 
ATOM      9  C   UNL     1      15.740  75.890  22.602  1.00  0.00    +0.077 C 
ATOM     10  C   UNL     1      18.619  76.151  22.030  1.00  0.00    -0.061 C 
ATOM     11  C   UNL     1      16.549  74.734  22.026  1.00  0.00    +0.019 C 
ATOM     12  C   UNL     1      17.788  75.167  21.191  1.00  0.00    -0.008 C 
ATOM     13  C   UNL     1      19.949  76.027  22.191  1.00  0.00    -0.026 C 
ATOM     14  C   UNL     1      18.626  73.868  20.850  1.00  0.00    +0.003 C 
ATOM     15  C   UNL     1      20.792  74.968  21.553  1.00  0.00    +0.031 C 
ATOM     16  C   UNL     1      20.076  74.221  20.417  1.00  0.00    +0.000 C 
ATOM     17  C   UNL     1      17.927  72.907  19.855  1.00  0.00    +0.005 C 
ATOM     18  C   UNL     1      20.832  72.939  20.047  1.00  0.00    -0.001 C 
ATOM     19  C   UNL     1      18.785  71.697  19.447  1.00  0.00    +0.007 C 
ATOM     20  C   UNL     1      20.163  72.125  18.914  1.00  0.00    -0.026 C 
ATOM     21  C   UNL     1      22.282  73.068  19.601  1.00  0.00    +0.005 C 
ATOM     22  C   UNL     1      22.572  71.737  18.894  1.00  0.00    +0.005 C 
ATOM     23  C   UNL     1      17.327  75.892  19.905  1.00  0.00    +0.016 C 
ATOM     24  C   UNL     1      20.006  72.912  17.592  1.00  0.00    +0.012 C 
ENDBRANCH   3   5
ENDBRANCH   1   3
BRANCH   2  25
ATOM     25  C   UNL     1      17.578  69.175  16.157  1.00  0.00    +0.014 C 
BRANCH  25  26
ATOM     26  C   UNL     1      16.851  68.963  17.519  1.00  0.00    -0.011 C 
ATOM     27  C   UNL     1      15.995  70.178  17.896  1.00  0.00    +0.008 C 
ATOM     28  C   UNL     1      17.781  68.609  18.685  1.00  0.00    +0.008 C 
ENDBRANCH  25  26
BRANCH  25  29
ATOM     29  C   UNL     1      17.637  67.865  15.339  1.00  0.00    +0.004 C 
ATOM     30  C   UNL     1      18.987  67.161  15.432  1.00  0.00    +0.004 C 
ENDBRANCH  25  29
ENDBRANCH   2  25
TORSDOF 5
ENDMDL
MODEL 9
REMARK VINA RESULT:    -1.054      3.494      9.333
REMARK INTER + INTRA:          -1.095
REMARK INTER:                  -0.472
REMARK INTRA:                  -0.623
REMARK UNBOUND:                 0.268
REMARK SMILES CC[C@H](/C=C/[C@@H](C)[C@H]1CC[C@H]2[C@@H]3CC=C4CC(=O)CC[C@]4(C)[C@H]3CC[C@]12C)C(C)C
REMARK SMILES IDX 5 1 4 2 6 3 7 4 8 5 18 6 17 7 16 8 19 9 15 10 20 11 21 12
REMARK SMILES IDX 14 13 23 14 13 15 12 16 24 17 11 18 25 19 26 20 10 21 9 22
REMARK SMILES IDX 22 23 27 24 3 25 28 26 29 27 30 28 2 29 1 30
REMARK H PARENT
REMARK INDEX MAP 22 1 24 2 14 3 21 4 6 5 1 6 23 7 19 8 20 9 15 10 16 11 9 12
REMARK INDEX MAP 17 13 5 14 12 15 4 16 10 17 3 18 7 19 2 20 8 21 11 22 18 23
REMARK INDEX MAP 13 24 25 25 26 26 28 27 29 28 27 29 30 30
ROOT
ATOM      1  C   UNL     1      18.993  66.626  16.622  1.00  0.00    -0.028 C 
ATOM      2  C   UNL     1      19.393  65.443  16.128  1.00  0.00    -0.027 C 
ENDROOT
BRANCH   1   3
ATOM      3  C   UNL     1      19.292  67.960  15.964  1.00  0.00    +0.012 C 
ATOM      4  C   UNL     1      19.005  67.817  14.468  1.00  0.00    +0.012 C 
BRANCH   3   5
ATOM      5  C   UNL     1      18.480  69.095  16.639  1.00  0.00    +0.002 C 
ATOM      6  O   UNL     1      18.752  76.897  22.582  1.00  0.00    -0.299 OA
ATOM      7  C   UNL     1      19.063  75.744  22.278  1.00  0.00    +0.136 C 
ATOM      8  C   UNL     1      18.218  74.554  22.683  1.00  0.00    +0.106 C 
ATOM      9  C   UNL     1      20.392  75.436  21.632  1.00  0.00    +0.077 C 
ATOM     10  C   UNL     1      18.131  73.547  21.557  1.00  0.00    -0.061 C 
ATOM     11  C   UNL     1      20.201  74.463  20.475  1.00  0.00    +0.019 C 
ATOM     12  C   UNL     1      19.438  73.159  20.847  1.00  0.00    -0.008 C 
ATOM     13  C   UNL     1      16.937  73.028  21.216  1.00  0.00    -0.026 C 
ATOM     14  C   UNL     1      19.142  72.367  19.510  1.00  0.00    +0.003 C 
ATOM     15  C   UNL     1      16.726  71.990  20.159  1.00  0.00    +0.031 C 
ATOM     16  C   UNL     1      18.026  71.304  19.710  1.00  0.00    +0.000 C 
ATOM     17  C   UNL     1      20.405  71.780  18.828  1.00  0.00    +0.005 C 
ATOM     18  C   UNL     1      17.810  70.527  18.406  1.00  0.00    -0.001 C 
ATOM     19  C   UNL     1      20.104  70.926  17.585  1.00  0.00    +0.007 C 
ATOM     20  C   UNL     1      19.081  69.816  17.884  1.00  0.00    -0.026 C 
ATOM     21  C   UNL     1      16.746  69.439  18.390  1.00  0.00    +0.005 C 
ATOM     22  C   UNL     1      17.098  68.594  17.157  1.00  0.00    +0.005 C 
ATOM     23  C   UNL     1      20.290  72.314  21.824  1.00  0.00    +0.016 C 
ATOM     24  C   UNL     1      19.676  68.795  18.883  1.00  0.00    +0.012 C 
ENDBRANCH   3   5
ENDBRANCH   1   3
BRANCH   2  25
ATOM     25  C   UNL     1      19.075  64.108  16.769  1.00  0.00    +0.014 C 
BRANCH  25  26
ATOM     26  C   UNL     1      20.095  63.712  17.878  1.00  0.00    -0.011 C 
ATOM     27  C   UNL     1      20.867  62.440  17.506  1.00  0.00    +0.008 C 
ATOM     28  C   UNL     1      19.482  63.550  19.274  1.00  0.00    +0.008 C 
ENDBRANCH  25  26
BRANCH  25  29
ATOM     29  C   UNL     1      18.953  63.005  15.694  1.00  0.00    +0.004 C 
ATOM     30  C   UNL     1      17.811  62.030  15.963  1.00  0.00    +0.004 C 
ENDBRANCH  25  29
ENDBRANCH   2  25
TORSDOF 5
ENDMDL
MODEL 10
REMARK VINA RESULT:     0.071      2.904      8.049
REMARK INTER + INTRA:           0.360
REMARK INTER:                   0.275
REMARK INTRA:                   0.084
REMARK UNBOUND:                 0.268
REMARK SMILES CC[C@H](/C=C/[C@@H](C)[C@H]1CC[C@H]2[C@@H]3CC=C4CC(=O)CC[C@]4(C)[C@H]3CC[C@]12C)C(C)C
REMARK SMILES IDX 5 1 4 2 6 3 7 4 8 5 18 6 17 7 16 8 19 9 15 10 20 11 21 12
REMARK SMILES IDX 14 13 23 14 13 15 12 16 24 17 11 18 25 19 26 20 10 21 9 22
REMARK SMILES IDX 22 23 27 24 3 25 28 26 29 27 30 28 2 29 1 30
REMARK H PARENT
REMARK INDEX MAP 22 1 24 2 14 3 21 4 6 5 1 6 23 7 19 8 20 9 15 10 16 11 9 12
REMARK INDEX MAP 17 13 5 14 12 15 4 16 10 17 3 18 7 19 2 20 8 21 11 22 18 23
REMARK INDEX MAP 13 24 25 25 26 26 28 27 29 28 27 29 30 30
ROOT
ATOM      1  C   UNL     1      20.942  69.704  18.008  1.00  0.00    -0.028 C 
ATOM      2  C   UNL     1      19.761  69.438  17.426  1.00  0.00    -0.027 C 
ENDROOT
BRANCH   1   3
ATOM      3  C   UNL     1      21.659  71.036  17.894  1.00  0.00    +0.012 C 
ATOM      4  C   UNL     1      22.397  71.055  16.555  1.00  0.00    +0.012 C 
BRANCH   3   5
ATOM      5  C   UNL     1      20.659  72.209  18.060  1.00  0.00    +0.002 C 
ATOM      6  O   UNL     1      16.528  78.590  24.263  1.00  0.00    -0.299 OA
ATOM      7  C   UNL     1      16.922  77.464  23.957  1.00  0.00    +0.136 C 
ATOM      8  C   UNL     1      16.031  76.473  23.237  1.00  0.00    +0.106 C 
ATOM      9  C   UNL     1      18.257  76.945  24.432  1.00  0.00    +0.077 C 
ATOM     10  C   UNL     1      16.807  75.722  22.176  1.00  0.00    -0.061 C 
ATOM     11  C   UNL     1      18.992  76.258  23.287  1.00  0.00    +0.019 C 
ATOM     12  C   UNL     1      18.174  75.143  22.572  1.00  0.00    -0.008 C 
ATOM     13  C   UNL     1      16.288  75.583  20.943  1.00  0.00    -0.026 C 
ATOM     14  C   UNL     1      18.986  74.685  21.293  1.00  0.00    +0.003 C 
ATOM     15  C   UNL     1      16.931  74.823  19.825  1.00  0.00    +0.031 C 
ATOM     16  C   UNL     1      18.083  73.917  20.288  1.00  0.00    +0.000 C 
ATOM     17  C   UNL     1      20.297  73.922  21.615  1.00  0.00    +0.005 C 
ATOM     18  C   UNL     1      18.921  73.448  19.093  1.00  0.00    -0.001 C 
ATOM     19  C   UNL     1      21.031  73.391  20.373  1.00  0.00    +0.007 C 
ATOM     20  C   UNL     1      20.110  72.539  19.482  1.00  0.00    -0.026 C 
ATOM     21  C   UNL     1      18.217  72.679  17.984  1.00  0.00    +0.005 C 
ATOM     22  C   UNL     1      19.360  71.991  17.226  1.00  0.00    +0.005 C 
ATOM     23  C   UNL     1      17.940  73.961  23.543  1.00  0.00    +0.016 C 
ATOM     24  C   UNL     1      19.689  71.249  20.226  1.00  0.00    +0.012 C 
ENDBRANCH   3   5
ENDBRANCH   1   3
BRANCH   2  25
ATOM     25  C   UNL     1      19.031  68.118  17.559  1.00  0.00    +0.014 C 
BRANCH  25  26
ATOM     26  C   UNL     1      18.499  67.582  16.195  1.00  0.00    -0.011 C 
ATOM     27  C   UNL     1      19.395  66.467  15.641  1.00  0.00    +0.008 C 
ATOM     28  C   UNL     1      18.300  68.660  15.125  1.00  0.00    +0.008 C 
ENDBRANCH  25  26
BRANCH  25  29
ATOM     29  C   UNL     1      17.897  68.228  18.602  1.00  0.00    +0.004 C 
ATOM     30  C   UNL     1      16.882  69.318  18.272  1.00  0.00    +0.004 C 
ENDBRANCH  25  29
ENDBRANCH   2  25
TORSDOF 5
ENDMDL
MODEL 11
REMARK VINA RESULT:     1.288      2.811      8.114
REMARK INTER + INTRA:           1.933
REMARK INTER:                   1.964
REMARK INTRA:                  -0.032
REMARK UNBOUND:                 0.268
REMARK SMILES CC[C@H](/C=C/[C@@H](C)[C@H]1CC[C@H]2[C@@H]3CC=C4CC(=O)CC[C@]4(C)[C@H]3CC[C@]12C)C(C)C
REMARK SMILES IDX 5 1 4 2 6 3 7 4 8 5 18 6 17 7 16 8 19 9 15 10 20 11 21 12
REMARK SMILES IDX 14 13 23 14 13 15 12 16 24 17 11 18 25 19 26 20 10 21 9 22
REMARK SMILES IDX 22 23 27 24 3 25 28 26 29 27 30 28 2 29 1 30
REMARK H PARENT
REMARK INDEX MAP 22 1 24 2 14 3 21 4 6 5 1 6 23 7 19 8 20 9 15 10 16 11 9 12
REMARK INDEX MAP 17 13 5 14 12 15 4 16 10 17 3 18 7 19 2 20 8 21 11 22 18 23
REMARK INDEX MAP 13 24 25 25 26 26 28 27 29 28 27 29 30 30
ROOT
ATOM      1  C   UNL     1      20.458  69.769  16.539  1.00  0.00    -0.028 C 
ATOM      2  C   UNL     1      19.151  69.463  16.589  1.00  0.00    -0.027 C 
ENDROOT
BRANCH   1   3
ATOM      3  C   UNL     1      21.235  70.351  17.704  1.00  0.00    +0.012 C 
ATOM      4  C   UNL     1      21.898  71.643  17.224  1.00  0.00    +0.012 C 
BRANCH   3   5
ATOM      5  C   UNL     1      20.308  70.555  18.930  1.00  0.00    +0.002 C 
ATOM      6  O   UNL     1      15.867  77.031  24.812  1.00  0.00    -0.299 OA
ATOM      7  C   UNL     1      16.839  76.622  24.173  1.00  0.00    +0.136 C 
ATOM      8  C   UNL     1      17.849  75.669  24.778  1.00  0.00    +0.106 C 
ATOM      9  C   UNL     1      17.172  77.179  22.812  1.00  0.00    +0.077 C 
ATOM     10  C   UNL     1      18.266  74.617  23.772  1.00  0.00    -0.061 C 
ATOM     11  C   UNL     1      17.520  76.049  21.851  1.00  0.00    +0.019 C 
ATOM     12  C   UNL     1      18.639  75.093  22.359  1.00  0.00    -0.008 C 
ATOM     13  C   UNL     1      18.300  73.322  24.136  1.00  0.00    -0.026 C 
ATOM     14  C   UNL     1      18.730  73.871  21.357  1.00  0.00    +0.003 C 
ATOM     15  C   UNL     1      18.741  72.197  23.253  1.00  0.00    +0.031 C 
ATOM     16  C   UNL     1      19.480  72.667  21.990  1.00  0.00    +0.000 C 
ATOM     17  C   UNL     1      19.279  74.241  19.955  1.00  0.00    +0.005 C 
ATOM     18  C   UNL     1      19.590  71.530  20.969  1.00  0.00    -0.001 C 
ATOM     19  C   UNL     1      19.461  73.036  19.017  1.00  0.00    +0.007 C 
ATOM     20  C   UNL     1      20.316  71.931  19.663  1.00  0.00    -0.026 C 
ATOM     21  C   UNL     1      20.289  70.248  21.399  1.00  0.00    +0.005 C 
ATOM     22  C   UNL     1      20.625  69.546  20.075  1.00  0.00    +0.005 C 
ATOM     23  C   UNL     1      19.982  75.855  22.440  1.00  0.00    +0.016 C 
ATOM     24  C   UNL     1      21.762  72.433  19.884  1.00  0.00    +0.012 C 
ENDBRANCH   3   5
ENDBRANCH   1   3
BRANCH   2  25
ATOM     25  C   UNL     1      18.379  68.859  15.435  1.00  0.00    +0.014 C 
BRANCH  25  26
ATOM     26  C   UNL     1      16.839  68.853  15.677  1.00  0.00    -0.011 C 
ATOM     27  C   UNL     1      16.500  69.042  17.160  1.00  0.00    +0.008 C 
ATOM     28  C   UNL     1      16.119  67.611  15.140  1.00  0.00    +0.008 C 
ENDBRANCH  25  26
BRANCH  25  29
ATOM     29  C   UNL     1      18.905  67.443  15.113  1.00  0.00    +0.004 C 
ATOM     30  C   UNL     1      19.268  66.640  16.358  1.00  0.00    +0.004 C 
ENDBRANCH  25  29
ENDBRANCH   2  25
TORSDOF 5
ENDMDL
MODEL 12
REMARK VINA RESULT:     2.004      1.690      3.710
REMARK INTER + INTRA:           2.857
REMARK INTER:                   3.212
REMARK INTRA:                  -0.355
REMARK UNBOUND:                 0.268
REMARK SMILES CC[C@H](/C=C/[C@@H](C)[C@H]1CC[C@H]2[C@@H]3CC=C4CC(=O)CC[C@]4(C)[C@H]3CC[C@]12C)C(C)C
REMARK SMILES IDX 5 1 4 2 6 3 7 4 8 5 18 6 17 7 16 8 19 9 15 10 20 11 21 12
REMARK SMILES IDX 14 13 23 14 13 15 12 16 24 17 11 18 25 19 26 20 10 21 9 22
REMARK SMILES IDX 22 23 27 24 3 25 28 26 29 27 30 28 2 29 1 30
REMARK H PARENT
REMARK INDEX MAP 22 1 24 2 14 3 21 4 6 5 1 6 23 7 19 8 20 9 15 10 16 11 9 12
REMARK INDEX MAP 17 13 5 14 12 15 4 16 10 17 3 18 7 19 2 20 8 21 11 22 18 23
REMARK INDEX MAP 13 24 25 25 26 26 28 27 29 28 27 29 30 30
ROOT
ATOM      1  C   UNL     1      19.100  73.804  23.560  1.00  0.00    -0.028 C 
ATOM      2  C   UNL     1      19.837  74.435  22.632  1.00  0.00    -0.027 C 
ENDROOT
BRANCH   1   3
ATOM      3  C   UNL     1      19.016  72.295  23.690  1.00  0.00    +0.012 C 
ATOM      4  C   UNL     1      18.532  71.975  25.105  1.00  0.00    +0.012 C 
BRANCH   3   5
ATOM      5  C   UNL     1      18.109  71.702  22.581  1.00  0.00    +0.002 C 
ATOM      6  O   UNL     1      17.697  66.338  14.377  1.00  0.00    -0.299 OA
ATOM      7  C   UNL     1      18.205  67.204  15.092  1.00  0.00    +0.136 C 
ATOM      8  C   UNL     1      17.760  68.651  15.034  1.00  0.00    +0.106 C 
ATOM      9  C   UNL     1      19.415  66.906  15.942  1.00  0.00    +0.077 C 
ATOM     10  C   UNL     1      17.694  69.250  16.422  1.00  0.00    -0.061 C 
ATOM     11  C   UNL     1      19.235  67.494  17.337  1.00  0.00    +0.019 C 
ATOM     12  C   UNL     1      18.890  69.011  17.358  1.00  0.00    -0.008 C 
ATOM     13  C   UNL     1      16.613  69.961  16.791  1.00  0.00    -0.026 C 
ATOM     14  C   UNL     1      18.531  69.411  18.847  1.00  0.00    +0.003 C 
ATOM     15  C   UNL     1      16.449  70.644  18.113  1.00  0.00    +0.031 C 
ATOM     16  C   UNL     1      17.759  70.758  18.907  1.00  0.00    +0.000 C 
ATOM     17  C   UNL     1      19.738  69.374  19.820  1.00  0.00    +0.005 C 
ATOM     18  C   UNL     1      17.481  71.130  20.368  1.00  0.00    -0.001 C 
ATOM     19  C   UNL     1      19.408  69.859  21.242  1.00  0.00    +0.007 C 
ATOM     20  C   UNL     1      18.755  71.252  21.236  1.00  0.00    -0.026 C 
ATOM     21  C   UNL     1      16.722  72.420  20.644  1.00  0.00    +0.005 C 
ATOM     22  C   UNL     1      17.013  72.712  22.123  1.00  0.00    +0.005 C 
ATOM     23  C   UNL     1      20.091  69.829  16.830  1.00  0.00    +0.016 C 
ATOM     24  C   UNL     1      19.758  72.312  20.721  1.00  0.00    +0.012 C 
ENDBRANCH   3   5
ENDBRANCH   1   3
BRANCH   2  25
ATOM     25  C   UNL     1      19.943  75.942  22.516  1.00  0.00    +0.014 C 
BRANCH  25  26
ATOM     26  C   UNL     1      18.605  76.609  22.076  1.00  0.00    -0.011 C 
ATOM     27  C   UNL     1      17.671  76.840  23.271  1.00  0.00    +0.008 C 
ATOM     28  C   UNL     1      17.853  75.854  20.975  1.00  0.00    +0.008 C 
ENDBRANCH  25  26
BRANCH  25  29
ATOM     29  C   UNL     1      21.105  76.334  21.576  1.00  0.00    +0.004 C 
ATOM     30  C   UNL     1      21.874  75.130  21.041  1.00  0.00    +0.004 C 
ENDBRANCH  25  29
ENDBRANCH   2  25
TORSDOF 5
ENDMDL
MODEL 13
REMARK VINA RESULT:     2.671      1.874      3.701
REMARK INTER + INTRA:           3.719
REMARK INTER:                   2.983
REMARK INTRA:                   0.737
REMARK UNBOUND:                 0.268
REMARK SMILES CC[C@H](/C=C/[C@@H](C)[C@H]1CC[C@H]2[C@@H]3CC=C4CC(=O)CC[C@]4(C)[C@H]3CC[C@]12C)C(C)C
REMARK SMILES IDX 5 1 4 2 6 3 7 4 8 5 18 6 17 7 16 8 19 9 15 10 20 11 21 12
REMARK SMILES IDX 14 13 23 14 13 15 12 16 24 17 11 18 25 19 26 20 10 21 9 22
REMARK SMILES IDX 22 23 27 24 3 25 28 26 29 27 30 28 2 29 1 30
REMARK H PARENT
REMARK INDEX MAP 22 1 24 2 14 3 21 4 6 5 1 6 23 7 19 8 20 9 15 10 16 11 9 12
REMARK INDEX MAP 17 13 5 14 12 15 4 16 10 17 3 18 7 19 2 20 8 21 11 22 18 23
REMARK INDEX MAP 13 24 25 25 26 26 28 27 29 28 27 29 30 30
ROOT
ATOM      1  C   UNL     1      19.321  73.933  23.480  1.00  0.00    -0.028 C 
ATOM      2  C   UNL     1      18.670  75.070  23.770  1.00  0.00    -0.027 C 
ENDROOT
BRANCH   1   3
ATOM      3  C   UNL     1      19.193  72.656  24.289  1.00  0.00    +0.012 C 
ATOM      4  C   UNL     1      18.259  72.941  25.465  1.00  0.00    +0.012 C 
BRANCH   3   5
ATOM      5  C   UNL     1      18.711  71.487  23.390  1.00  0.00    +0.002 C 
ATOM      6  O   UNL     1      19.014  67.382  14.485  1.00  0.00    -0.299 OA
ATOM      7  C   UNL     1      18.923  68.353  15.237  1.00  0.00    +0.136 C 
ATOM      8  C   UNL     1      17.587  68.829  15.771  1.00  0.00    +0.106 C 
ATOM      9  C   UNL     1      20.115  69.228  15.535  1.00  0.00    +0.077 C 
ATOM     10  C   UNL     1      17.701  69.234  17.224  1.00  0.00    -0.061 C 
ATOM     11  C   UNL     1      20.183  69.536  17.026  1.00  0.00    +0.019 C 
ATOM     12  C   UNL     1      18.878  70.139  17.621  1.00  0.00    -0.008 C 
ATOM     13  C   UNL     1      16.786  68.801  18.111  1.00  0.00    -0.026 C 
ATOM     14  C   UNL     1      19.040  70.200  19.194  1.00  0.00    +0.003 C 
ATOM     15  C   UNL     1      16.759  69.171  19.561  1.00  0.00    +0.031 C 
ATOM     16  C   UNL     1      17.667  70.362  19.904  1.00  0.00    +0.000 C 
ATOM     17  C   UNL     1      20.087  71.233  19.683  1.00  0.00    +0.005 C 
ATOM     18  C   UNL     1      17.877  70.469  21.419  1.00  0.00    -0.001 C 
ATOM     19  C   UNL     1      20.170  71.362  21.213  1.00  0.00    +0.007 C 
ATOM     20  C   UNL     1      18.793  71.642  21.841  1.00  0.00    -0.026 C 
ATOM     21  C   UNL     1      16.647  70.626  22.301  1.00  0.00    +0.005 C 
ATOM     22  C   UNL     1      17.208  71.150  23.630  1.00  0.00    +0.005 C 
ATOM     23  C   UNL     1      18.633  71.546  17.026  1.00  0.00    +0.016 C 
ATOM     24  C   UNL     1      18.272  73.029  21.394  1.00  0.00    +0.012 C 
ENDBRANCH   3   5
ENDBRANCH   1   3
BRANCH   2  25
ATOM     25  C   UNL     1      18.776  76.339  22.950  1.00  0.00    +0.014 C 
BRANCH  25  26
ATOM     26  C   UNL     1      17.386  76.911  22.539  1.00  0.00    -0.011 C 
ATOM     27  C   UNL     1      16.460  77.070  23.751  1.00  0.00    +0.008 C 
ATOM     28  C   UNL     1      16.669  76.107  21.448  1.00  0.00    +0.008 C 
ENDBRANCH  25  26
BRANCH  25  29
ATOM     29  C   UNL     1      19.682  76.115  21.719  1.00  0.00    +0.004 C 
ATOM     30  C   UNL     1      21.154  75.950  22.080  1.00  0.00    +0.004 C 
ENDBRANCH  25  29
ENDBRANCH   2  25
TORSDOF 5
ENDMDL
MODEL 14
REMARK VINA RESULT:     2.676      1.456      2.028
REMARK INTER + INTRA:           3.726
REMARK INTER:                   4.105
REMARK INTRA:                  -0.378
REMARK UNBOUND:                 0.268
REMARK SMILES CC[C@H](/C=C/[C@@H](C)[C@H]1CC[C@H]2[C@@H]3CC=C4CC(=O)CC[C@]4(C)[C@H]3CC[C@]12C)C(C)C
REMARK SMILES IDX 5 1 4 2 6 3 7 4 8 5 18 6 17 7 16 8 19 9 15 10 20 11 21 12
REMARK SMILES IDX 14 13 23 14 13 15 12 16 24 17 11 18 25 19 26 20 10 21 9 22
REMARK SMILES IDX 22 23 27 24 3 25 28 26 29 27 30 28 2 29 1 30
REMARK H PARENT
REMARK INDEX MAP 22 1 24 2 14 3 21 4 6 5 1 6 23 7 19 8 20 9 15 10 16 11 9 12
REMARK INDEX MAP 17 13 5 14 12 15 4 16 10 17 3 18 7 19 2 20 8 21 11 22 18 23
REMARK INDEX MAP 13 24 25 25 26 26 28 27 29 28 27 29 30 30
ROOT
ATOM      1  C   UNL     1      18.645  74.979  23.966  1.00  0.00    -0.028 C 
ATOM      2  C   UNL     1      18.346  75.913  23.048  1.00  0.00    -0.027 C 
ENDROOT
BRANCH   1   3
ATOM      3  C   UNL     1      19.219  73.616  23.629  1.00  0.00    +0.012 C 
ATOM      4  C   UNL     1      18.251  72.558  24.160  1.00  0.00    +0.012 C 
BRANCH   3   5
ATOM      5  C   UNL     1      19.484  73.498  22.106  1.00  0.00    +0.002 C 
ATOM      6  O   UNL     1      17.655  68.481  13.876  1.00  0.00    -0.299 OA
ATOM      7  C   UNL     1      17.922  68.550  15.076  1.00  0.00    +0.136 C 
ATOM      8  C   UNL     1      19.350  68.628  15.574  1.00  0.00    +0.106 C 
ATOM      9  C   UNL     1      16.852  68.388  16.127  1.00  0.00    +0.077 C 
ATOM     10  C   UNL     1      19.468  69.607  16.723  1.00  0.00    -0.061 C 
ATOM     11  C   UNL     1      17.011  69.449  17.209  1.00  0.00    +0.019 C 
ATOM     12  C   UNL     1      18.428  69.509  17.851  1.00  0.00    -0.008 C 
ATOM     13  C   UNL     1      20.459  70.517  16.725  1.00  0.00    -0.026 C 
ATOM     14  C   UNL     1      18.488  70.783  18.787  1.00  0.00    +0.003 C 
ATOM     15  C   UNL     1      20.712  71.503  17.822  1.00  0.00    +0.031 C 
ATOM     16  C   UNL     1      19.952  71.181  19.119  1.00  0.00    +0.000 C 
ATOM     17  C   UNL     1      17.599  70.681  20.053  1.00  0.00    +0.005 C 
ATOM     18  C   UNL     1      19.960  72.385  20.068  1.00  0.00    -0.001 C 
ATOM     19  C   UNL     1      17.736  71.876  21.011  1.00  0.00    +0.007 C 
ATOM     20  C   UNL     1      19.203  72.139  21.394  1.00  0.00    -0.026 C 
ATOM     21  C   UNL     1      21.308  72.938  20.510  1.00  0.00    +0.005 C 
ATOM     22  C   UNL     1      20.975  73.779  21.750  1.00  0.00    +0.005 C 
ATOM     23  C   UNL     1      18.697  68.212  18.648  1.00  0.00    +0.016 C 
ATOM     24  C   UNL     1      19.762  70.956  22.219  1.00  0.00    +0.012 C 
ENDBRANCH   3   5
ENDBRANCH   1   3
BRANCH   2  25
ATOM     25  C   UNL     1      17.797  77.283  23.383  1.00  0.00    +0.014 C 
BRANCH  25  26
ATOM     26  C   UNL     1      16.402  77.223  24.077  1.00  0.00    -0.011 C 
ATOM     27  C   UNL     1      15.416  76.355  23.285  1.00  0.00    +0.008 C 
ATOM     28  C   UNL     1      15.773  78.592  24.354  1.00  0.00    +0.008 C 
ENDBRANCH  25  26
BRANCH  25  29
ATOM     29  C   UNL     1      17.761  78.177  22.123  1.00  0.00    +0.004 C 
ATOM     30  C   UNL     1      18.204  77.447  20.859  1.00  0.00    +0.004 C 
ENDBRANCH  25  29
ENDBRANCH   2  25
TORSDOF 5
ENDMDL
MODEL 15
REMARK VINA RESULT:     3.437      2.986      8.209
REMARK INTER + INTRA:           4.710
REMARK INTER:                   3.544
REMARK INTRA:                   1.166
REMARK UNBOUND:                 0.268
REMARK SMILES CC[C@H](/C=C/[C@@H](C)[C@H]1CC[C@H]2[C@@H]3CC=C4CC(=O)CC[C@]4(C)[C@H]3CC[C@]12C)C(C)C
REMARK SMILES IDX 5 1 4 2 6 3 7 4 8 5 18 6 17 7 16 8 19 9 15 10 20 11 21 12
REMARK SMILES IDX 14 13 23 14 13 15 12 16 24 17 11 18 25 19 26 20 10 21 9 22
REMARK SMILES IDX 22 23 27 24 3 25 28 26 29 27 30 28 2 29 1 30
REMARK H PARENT
REMARK INDEX MAP 22 1 24 2 14 3 21 4 6 5 1 6 23 7 19 8 20 9 15 10 16 11 9 12
REMARK INDEX MAP 17 13 5 14 12 15 4 16 10 17 3 18 7 19 2 20 8 21 11 22 18 23
REMARK INDEX MAP 13 24 25 25 26 26 28 27 29 28 27 29 30 30
ROOT
ATOM      1  C   UNL     1      18.794  68.463  18.360  1.00  0.00    -0.028 C 
ATOM      2  C   UNL     1      18.690  69.521  17.540  1.00  0.00    -0.027 C 
ENDROOT
BRANCH   1   3
ATOM      3  C   UNL     1      18.324  68.463  19.803  1.00  0.00    +0.012 C 
ATOM      4  C   UNL     1      18.693  67.111  20.414  1.00  0.00    +0.012 C 
BRANCH   3   5
ATOM      5  C   UNL     1      18.926  69.669  20.571  1.00  0.00    +0.002 C 
ATOM      6  O   UNL     1      17.327  78.634  24.221  1.00  0.00    -0.299 OA
ATOM      7  C   UNL     1      17.227  77.781  23.338  1.00  0.00    +0.136 C 
ATOM      8  C   UNL     1      18.284  77.613  22.266  1.00  0.00    +0.106 C 
ATOM      9  C   UNL     1      15.968  76.967  23.172  1.00  0.00    +0.077 C 
ATOM     10  C   UNL     1      18.535  76.148  21.981  1.00  0.00    -0.061 C 
ATOM     11  C   UNL     1      16.314  75.500  22.950  1.00  0.00    +0.019 C 
ATOM     12  C   UNL     1      17.310  75.242  21.782  1.00  0.00    -0.008 C 
ATOM     13  C   UNL     1      19.798  75.689  21.909  1.00  0.00    -0.026 C 
ATOM     14  C   UNL     1      17.724  73.715  21.822  1.00  0.00    +0.003 C 
ATOM     15  C   UNL     1      20.178  74.278  21.585  1.00  0.00    +0.031 C 
ATOM     16  C   UNL     1      19.019  73.452  21.005  1.00  0.00    +0.000 C 
ATOM     17  C   UNL     1      16.579  72.739  21.448  1.00  0.00    +0.005 C 
ATOM     18  C   UNL     1      19.351  71.956  21.027  1.00  0.00    -0.001 C 
ATOM     19  C   UNL     1      17.009  71.264  21.388  1.00  0.00    +0.007 C 
ATOM     20  C   UNL     1      18.224  71.057  20.466  1.00  0.00    -0.026 C 
ATOM     21  C   UNL     1      20.597  71.489  20.286  1.00  0.00    +0.005 C 
ATOM     22  C   UNL     1      20.385  69.979  20.120  1.00  0.00    +0.005 C 
ATOM     23  C   UNL     1      16.645  75.610  20.436  1.00  0.00    +0.016 C 
ATOM     24  C   UNL     1      17.845  71.377  19.001  1.00  0.00    +0.012 C 
ENDBRANCH   3   5
ENDBRANCH   1   3
BRANCH   2  25
ATOM     25  C   UNL     1      19.135  69.515  16.092  1.00  0.00    +0.014 C 
BRANCH  25  26
ATOM     26  C   UNL     1      18.586  68.293  15.296  1.00  0.00    -0.011 C 
ATOM     27  C   UNL     1      17.054  68.230  15.346  1.00  0.00    +0.008 C 
ATOM     28  C   UNL     1      19.170  66.943  15.725  1.00  0.00    +0.008 C 
ENDBRANCH  25  26
BRANCH  25  29
ATOM     29  C   UNL     1      20.674  69.606  15.997  1.00  0.00    +0.004 C 
ATOM     30  C   UNL     1      21.264  70.716  16.860  1.00  0.00    +0.004 C 
ENDBRANCH  25  29
ENDBRANCH   2  25
TORSDOF 5
ENDMDL
